

 Parallel Execution: Process Information
 ==============================================================================
 Rank   Node Name                              NodeID   MyNodeRank  NodeMaster
    0   node115                                   0          0          0
    1   node115                                   0          1         -1
    2   node115                                   0          2         -1
    3   node115                                   0          3         -1
 ==============================================================================


May use up to 122928MB of RAM as shared memory on node 0

 *******************************************************************************
 *                                                                             *
 *  --------------------------------                                           *
 *   Amsterdam Modeling Suite (AMS)              2021.102                      *
 *  --------------------------------                                           *
 *                                               r95042 2021-06-07             *
 *                                                                             *
 *                                                                             *
 *                              =================                              *
 *                              |               |                              *
 *                              |     A M S     |                              *
 *                              |               |                              *
 *                              =================                              *
 *                                                                             *
 *                                                                             *
 *   Online information and documentation:  https://www.scm.com/support/       *
 *   E-mail:  support@scm.com   info@scm.com                                   *
 *                                                                             *
 *   Scientific publications using AMS results must be properly referenced     *
 *   See the User Manuals (or the web site) for recommended citations          *
 *   The terms and conditions of the End User License Agreement apply to       *
 *   the use of AMS, https://www.scm.com/license-terms/                        *
 *                                                                             *
 **********************  x86_64_linux_intel / intelmpi  ************************
 
 Licensed to: VU/FEW (+ SARA) / ALGEMEEN / Amsterdam / THE NETHERLANDS
 SCM User ID: u7668
  
 AMS 2021.102  RunTime: Jan22-2022 23:33:31  ShM Nodes: 1  Procs: 4

 AMS jobname: 22.achiral_catalyst.H_H_AlF3.TS
 AMS jobid  : 1970331931

 Start   directory: /scistor/tc/yhk800/MasterProject/calculations/achiral_catalyst_H_H_AlF3/22.achiral_catalyst.H_H_AlF3.TS/
 Results directory: /scistor/tc/yhk800/MasterProject/calculations/achiral_catalyst_H_H_AlF3/22.achiral_catalyst.H_H_AlF3.TS/
 Scratch directory: /scratch/3978/amstmp_22.achiral_catalyst.H_H_AlF3.TS_kid0.1970331931/


 Communication costs MPI_COMM_WORLD:      0.906 usec per message,   0.0156 usec per 8-byte item
 Communication costs for intra-node:      0.015 usec per message,   0.0078 usec per 8-byte item

 RNG seed: -1971544496 -719549007 2090493530 1505970941 -730286733 484526029 -863554282 565547016



                      ************************************************************************
                      *  ADF 2021.102  RunTime: Jan22-2022 23:33:32  ShM Nodes: 1  Procs: 4  *
                      ************************************************************************
  
       *****************************
       *  TRANSITION STATE SEARCH  *
       *****************************

Optimization Method                    Quasi Newton
Optimization Coordinates               Delocalized Coordinates
Optimize lattice                       F
 
 ------------------------------------------------------
 Convergence criteria (Hartree,Angstrom)
 ------------------------------------------------------
 Maximum gradient               0.001000000000
 Maximum rms gradient           0.000666666667
 Maximum step allowed           0.010000000000
 Maximum rms step allowed       0.006666666667
 Maximum energy change allowe   0.000160000000
 Maximum stress energy allowe   0.000500000000
 
Initial model Hessian                  Automatic Hessian
 
------------------------------------
Quasi-Newton Optimizer Parameters
------------------------------------
Hessian Update Method                  Bofill
Maximum number of steps                  250
First GDIIS cycle                          0
Maximum GDIIS vectors                      0
Trust radius (bohr)                        0.200000
Trust radius varies                        F
Constraints converged at all steps         T
Use projector                              T
 
 Rigid motions settings for: old optimizer
 Atomic rotations (x,y,z):     T T T
 Atomic translations (x,y,z):  T T T
 Tolerance:                   1.000000000000000E-006
 
           1  TSRC entries:
    i   type      a1    a2    a3    a4    coef
    1 Distance     2    10               -1.000
 
--------
Geometry
--------
Formula: C4H7AlF3O
Atoms
  Index Symbol   x (angstrom)   y (angstrom)   z (angstrom)
      1      H     0.19369716    -1.85361092    -0.24516176
      2      C    -0.92057816    -0.12292898     0.28183759
      3      C     0.21368396    -0.77846351    -0.06958517
      4      C     1.52168394    -0.13059856    -0.22805405
      5      O     1.77804810     1.04912696    -0.01680607
      6      H    -0.93117356     0.95749943     0.37346659
      7      H    -1.16677948    -1.14795174     3.01281369
      8      H    -2.10496465     0.45730942     2.86041604
      9      H    -0.24714630     0.47546451     3.02589233
     10      C    -1.16197426    -0.07675120     2.85297480
     11      H    -1.86354143    -0.62823164     0.30157320
     12      H     2.30109647    -0.78460704    -0.55924738
     13     Al     2.49853305     4.24557076     0.37517415
     14      F     2.92736869     3.96086770     1.90858751
     15      F     0.96852618     4.63374390     0.02202694
     16      F     3.59970429     4.14210067    -0.80509201
 
Total System Charge             0.00000
 
 
----------------
ADF Engine Input
----------------
 
 NumericalQuality VeryGood
 SCF
 Converge 1.0e-6
 Iterations 99
 End
 SYMMETRY NOSYM
 SpinPolarization 1.0
 Unrestricted Yes
 XC
 GGA OLYP
 End
 basis
 core None
 type TZ2P
 End
 

 Title: *** (NO TITLE) ***

Bad geometry: added dihedral    12    4   13   14
 Using automatic Hessian for delocalized coordinates.
 *** GOStep1 ***

 Energy gradients wrt nuclear displacements
 ==========================================

     Atom      Cartesian (a.u./angstrom)
                 X         Y         Z
 ----------------------------------------
     1 H     0.000040  0.000167 -0.000012
     2 C    -0.015735 -0.008075  0.001066
     3 C     0.000673 -0.002946 -0.001397
     4 C     0.033188 -0.023807 -0.013400
     5 O     0.002783 -0.011249 -0.003048
     6 H    -0.001297 -0.001460  0.000540
     7 H    -0.000061  0.000001  0.000062
     8 H     0.000087  0.000069 -0.000023
     9 H    -0.000375 -0.000035  0.000057
    10 C    -0.000014 -0.000020 -0.001089
    11 H     0.017307  0.009247 -0.000112
    12 H    -0.037850  0.031755  0.016388
    13 Al    0.002669  0.023768  0.004243
    14 F    -0.011499  0.001633 -0.040345
    15 F     0.038886 -0.015443  0.008008
    16 F    -0.028803 -0.003604  0.029063
 ----------------------------------------
 Mulliken charges used for AMS results%charges...
           Primitive Internal Coordinates (atoms in internal order)
-------------------------------------------------------------------------------
    index    type      i       j       k       l   value(A,deg)     TSRC Vect
-------------------------------------------------------------------------------
       1     bnd       1       3       0       0     1.08957265     0.00000000
       2     bnd       2       6       0       0     1.08435865     0.00000000
       3     bnd       2       3       0       0     1.35638270     0.09406642
       4     bnd       3       4       0       0     1.46823204     0.00154805
       5     bnd       4      12       0       0     1.07000000    -0.00000000
       6     bnd       4       5       0       0     1.22560214     0.00372991
       7     bnd       8      10       0       0     1.08374674    -0.00000000
       8     bnd       7      10       0       0     1.08307071     0.00000000
       9     bnd       9      10       0       0     1.08247534     0.00000000
      10     bnd       2      11       0       0     1.07000000    -0.00000000
      11     bnd      13      15       0       0     1.61750189     0.00000000
      12     bnd      13      14       0       0     1.61750189     0.00000000
      13     bnd      13      16       0       0     1.61750189     0.00000000
      14     bnd       2      10       0       0     2.58285714    -0.49471364
      15     bnd       3      10       0       0     3.30547916    -0.20169086
      16     bnd       5      13       0       0     3.30000000     0.00387535
      17     bnd      10      13       0       0     6.18233588    -0.00471006
      18     ang       6       2       3       0   120.77103538    -0.00150333
      19     ang       6       2      11       0   117.41061259    -0.00517022
      20     ang       6       2      10       0    84.09702452    -0.03671051
      21     ang       3       2      11       0   120.89733866     0.00246247
      22     ang       3       2      10       0   110.16403203     0.10154422
      23     ang      11       2      10       0    84.70507552    -0.04672808
      24     ang       1       3       2       0   120.21909900     0.00775149
      25     ang       1       3       4       0   115.74474309    -0.02837460
      26     ang       1       3      10       0   110.14017713     0.02761192
      27     ang       2       3       4       0   124.03410402     0.02028267
      28     ang       2       3      10       0    47.18020735    -0.11477552
      29     ang       4       3      10       0   111.87064539     0.05591937
      30     ang       3       4      12       0   114.37019830     0.00493353
      31     ang       3       4       5       0   126.33327012    -0.00787502
      32     ang      12       4       5       0   119.29637410     0.00291637
      33     lai       4       5      13      14   177.16575658    -0.00710307
      34     ang       8      10       7       0   118.84988012     0.00017172
      35     ang       8      10       9       0   118.87311123     0.00088807
      36     ang       8      10       2       0    95.56458342    -0.00515071
      37     ang       8      10       3       0   118.21664669     0.00808155
      38     ang       8      10      13       0    99.98629260     0.00269190
      39     ang       7      10       9       0   118.99448321    -0.00010080
      40     ang       7      10       2       0    97.44889075     0.00039869
      41     ang       7      10       3       0    85.54757082    -0.00614508
      42     ang       7      10      13       0   138.87295541    -0.00276444
      43     ang       9      10       2       0    95.11483796     0.00208413
      44     ang       9      10       3       0    84.13492797    -0.00466827
      45     ang       9      10      13       0    37.53046017    -0.00337701
      46     ang       2      10      13       0    63.78081501     0.00297928
      47     ang       3      10      13       0    63.10523560     0.00132096
      48     ang      15      13      14       0   120.00000058     0.00877055
      49     ang      15      13      16       0   119.99999971     0.00122144
      50     ang      15      13       5       0    89.99999981    -0.00305343
      51     ang      15      13      10       0    72.25517988    -0.00212888
      52     ang      14      13      16       0   119.99999971    -0.00999198
      53     ang      14      13       5       0    90.00000000     0.00351019
      54     ang      14      13      10       0    69.75509863     0.01328277
      55     ang      16      13       5       0    89.99999988     0.00365372
      56     ang      16      13      10       0   130.60283348    -0.00330013
      57     ang       5      13      10       0    40.63572331    -0.00704246
      58     lao       4       5      13      14    88.66175515     0.00879556
      59     dih       6       2       3       1   185.43025046    -0.01471678
      60     dih       6       2       3       4     5.97435318     0.03052865
      61     dih       6       2       3      10    95.22935729     0.01802920
      62     dih      11       2       3       1    -5.83693566    -0.04077453
      63     dih      11       2       3       4   174.70716706     0.00447091
      64     dih      11       2       3      10   263.96217117    -0.00802855
      65     dih      10       2       3       1    90.20089317    -0.03274598
      66     dih      10       2       3       4   -89.25500411     0.01249945
      67     dih       1       3       4      12     3.58206089    -0.02290375
      68     dih       1       3       4       5   183.72850675    -0.01122820
      69     dih       2       3       4      12   183.06008625    -0.06614320
      70     dih       2       3       4       5     3.20653211    -0.05446765
      71     dih      10       3       4      12   130.84520156     0.04230165
      72     dih      10       3       4       5   -49.00835258     0.05397720
      73     dih       6       2      10       8    60.32627910     0.00468636
      74     dih       6       2      10       7   180.43650753     0.00386818
      75     dih       6       2      10       9   -59.39742086     0.00426009
      76     dih       6       2      10       3   239.33945908     0.00512904
      77     dih       6       2      10      13   -38.08258143    -0.00088159
      78     dih       3       2      10       8   180.98682002    -0.00044268
      79     dih       3       2      10       7   -58.90295155    -0.00126086
      80     dih       3       2      10       9    61.26312006    -0.00086895
      81     dih       3       2      10      13    82.57795949    -0.00601063
      82     dih      11       2      10       8   -57.99296306    -0.00378165
      83     dih      11       2      10       7    62.11726537    -0.00459983
      84     dih      11       2      10       9   182.28333697    -0.00420792
      85     dih      11       2      10       3   121.02021691    -0.00333897
      86     dih      11       2      10      13   203.59817640    -0.00934960
      87     dih       1       3      10       8   248.09637082     0.01307264
      88     dih       1       3      10       7     8.59151161     0.01155003
      89     dih       1       3      10       9   128.37671670     0.01314211
      90     dih       1       3      10       2   246.98173076     0.01347854
      91     dih       1       3      10      13   161.04778232     0.01327845
      92     dih       2       3      10       8     1.11464006    -0.00040590
      93     dih       2       3      10       7   121.60978085    -0.00192851
      94     dih       2       3      10       9   241.39498594    -0.00033643
      95     dih       2       3      10      13   -85.93394844    -0.00020009
      96     dih       4       3      10       8   117.87482254    -0.01743115
      97     dih       4       3      10       7   238.36996333    -0.01895376
      98     dih       4       3      10       9    -1.84483158    -0.01736169
      99     dih       4       3      10       2   116.76018248    -0.01702526
     100     dih       4       3      10      13    30.82623404    -0.01722535
     101     dih       8      10      13      15   -18.98624451     0.00110775
     102     dih       8      10      13      14   113.66756741     0.00406770
     103     dih       8      10      13      16   226.35910329     0.00132983
     104     dih       8      10      13       5   229.12022793    -0.00226066
     105     dih       7      10      13      15   142.19535810     0.00197654
     106     dih       7      10      13      14   -85.15082997     0.00493650
     107     dih       7      10      13      16    27.54070590     0.00219862
     108     dih       7      10      13       5    30.30183054    -0.00139187
     109     dih       9      10      13      15   215.87011817     0.00110689
     110     dih       9      10      13      14   -11.47606990     0.00406685
     111     dih       9      10      13      16   101.21546597     0.00132897
     112     dih       9      10      13       5   103.97659061    -0.00226152
     113     dih       2      10      13      15    72.33375089    -0.00552030
     114     dih       2      10      13      14   204.98756282    -0.00256034
     115     dih       2      10      13      16   -42.32090131    -0.00529822
     116     dih       2      10      13       5   -39.55977667    -0.00888871
     117     dih       3      10      13      15    97.69288292     0.00881521
     118     dih       3      10      13      14   230.34669484     0.01177517
     119     dih       3      10      13      16   -16.96176928     0.00903729
     120     dih       3      10      13       5   -14.20064464     0.00544680
     121     dih      12       4      13      14   -89.11210872    -0.04518196
Hessian eigenvector     1(     0.002) has overlap with TSRC:    0.17436E-01
Hessian eigenvector     2(     0.005) has overlap with TSRC:    0.20811E+00
Hessian eigenvector     3(     0.005) has overlap with TSRC:    0.32386E+00
Hessian eigenvector     4(     0.006) has overlap with TSRC:    0.18315E+00
Hessian eigenvector     5(     0.007) has overlap with TSRC:    0.31101E+00
Hessian eigenvector     6(     0.011) has overlap with TSRC:    0.12726E-01
Hessian eigenvector     7(     0.012) has overlap with TSRC:    0.29215E-01
Hessian eigenvector     8(     0.019) has overlap with TSRC:    0.16063E-03
Hessian eigenvector     9(     0.021) has overlap with TSRC:    0.28031E-01
Hessian eigenvector    10(     0.027) has overlap with TSRC:    0.51957E-01
Hessian eigenvector    11(     0.027) has overlap with TSRC:    0.16295E+00
Hessian eigenvector    12(     0.032) has overlap with TSRC:    0.30243E-01
Hessian eigenvector    13(     0.032) has overlap with TSRC:    0.10242E-01
Hessian eigenvector    14(     0.043) has overlap with TSRC:    0.10439E-01
Hessian eigenvector    15(     0.046) has overlap with TSRC:    0.98404E-02
Hessian eigenvector    16(     0.052) has overlap with TSRC:    0.34216E-01
Hessian eigenvector    17(     0.055) has overlap with TSRC:    0.12210E-01
Hessian eigenvector    18(     0.056) has overlap with TSRC:    0.14052E-01
Hessian eigenvector    19(     0.069) has overlap with TSRC:    0.44547E-02
Hessian eigenvector    20(     0.073) has overlap with TSRC:    0.44316E-03
Hessian eigenvector    21(     0.086) has overlap with TSRC:    0.67874E-01
Hessian eigenvector    22(     0.089) has overlap with TSRC:    0.82945E-01
Hessian eigenvector    23(     0.098) has overlap with TSRC:    0.92599E-01
Hessian eigenvector    24(     0.110) has overlap with TSRC:    0.65694E-01
Hessian eigenvector    25(     0.121) has overlap with TSRC:    0.82015E-01
Hessian eigenvector    26(     0.153) has overlap with TSRC:    0.71817E-02
Hessian eigenvector    27(     0.161) has overlap with TSRC:    0.58818E-02
Hessian eigenvector    28(     0.223) has overlap with TSRC:    0.51785E-02
Hessian eigenvector    29(     0.230) has overlap with TSRC:    0.69352E-03
Hessian eigenvector    30(     0.461) has overlap with TSRC:    0.76503E-01
Hessian eigenvector    31(     0.489) has overlap with TSRC:    0.38985E-02
Hessian eigenvector    32(     0.500) has overlap with TSRC:    0.16201E-14
Hessian eigenvector    33(     0.503) has overlap with TSRC:    0.19749E-14
Hessian eigenvector    34(     0.503) has overlap with TSRC:    0.57530E-16
Hessian eigenvector    35(     0.503) has overlap with TSRC:    0.43260E-15
Hessian eigenvector    36(     0.503) has overlap with TSRC:    0.38261E-15
Hessian eigenvector    37(     0.509) has overlap with TSRC:    0.78713E-15
Hessian eigenvector    38(     0.509) has overlap with TSRC:    0.30358E-15
Hessian eigenvector    39(     0.567) has overlap with TSRC:    0.11712E-01
Hessian eigenvector    40(     0.580) has overlap with TSRC:    0.21713E-14
Hessian eigenvector    41(     0.580) has overlap with TSRC:    0.42945E-15
Hessian eigenvector    42(     0.580) has overlap with TSRC:    0.91938E-15
Hessian eigenvector     3 has the largest overlap with TSRC:  0.32386
           Primitive Internal Coordinates (atoms in internal order)
-------------------------------------------------------------------------------
    index    type      i       j       k       l   value(A,deg)     Max Ovl Vect
-------------------------------------------------------------------------------
       1     bnd       1       3       0       0     1.08957265     0.00000000
       2     bnd       2       6       0       0     1.08435865     0.00000000
       3     bnd       2       3       0       0     1.35638270    -0.01579985
       4     bnd       3       4       0       0     1.46823204    -0.00090433
       5     bnd       4      12       0       0     1.07000000     0.00000000
       6     bnd       4       5       0       0     1.22560214    -0.00044980
       7     bnd       8      10       0       0     1.08374674     0.00000000
       8     bnd       7      10       0       0     1.08307071    -0.00000000
       9     bnd       9      10       0       0     1.08247534     0.00000000
      10     bnd       2      11       0       0     1.07000000    -0.00000000
      11     bnd      13      15       0       0     1.61750189     0.00000000
      12     bnd      13      14       0       0     1.61750189     0.00000000
      13     bnd      13      16       0       0     1.61750189     0.00000000
      14     bnd       2      10       0       0     2.58285714     0.45801286
      15     bnd       3      10       0       0     3.30547916     0.09360975
      16     bnd       5      13       0       0     3.30000000    -0.00118391
      17     bnd      10      13       0       0     6.18233588     0.00811691
      18     ang       6       2       3       0   120.77103538     0.00836571
      19     ang       6       2      11       0   117.41061259     0.00845536
      20     ang       6       2      10       0    84.09702452     0.01398514
      21     ang       3       2      11       0   120.89733866     0.01091190
      22     ang       3       2      10       0   110.16403203    -0.16931214
      23     ang      11       2      10       0    84.70507552     0.01693010
      24     ang       1       3       2       0   120.21909900     0.00193127
      25     ang       1       3       4       0   115.74474309    -0.00026318
      26     ang       1       3      10       0   110.14017713    -0.03200265
      27     ang       2       3       4       0   124.03410402    -0.00116001
      28     ang       2       3      10       0    47.18020735     0.15218868
      29     ang       4       3      10       0   111.87064539    -0.05067509
      30     ang       3       4      12       0   114.37019830     0.00563659
      31     ang       3       4       5       0   126.33327012    -0.01054174
      32     ang      12       4       5       0   119.29637410     0.00474301
      33     lai       4       5      13      14   177.16575658    -0.01289904
      34     ang       8      10       7       0   118.84988012    -0.00263259
      35     ang       8      10       9       0   118.87311123    -0.00501073
      36     ang       8      10       2       0    95.56458342    -0.00975147
      37     ang       8      10       3       0   118.21664669     0.00630811
      38     ang       8      10      13       0    99.98629260     0.08095626
      39     ang       7      10       9       0   118.99448321     0.00412284
      40     ang       7      10       2       0    97.44889075     0.02563576
      41     ang       7      10       3       0    85.54757082    -0.03126337
      42     ang       7      10      13       0   138.87295541    -0.08003876
      43     ang       9      10       2       0    95.11483796    -0.00623748
      44     ang       9      10       3       0    84.13492797     0.03640690
      45     ang       9      10      13       0    37.53046017    -0.02582086
      46     ang       2      10      13       0    63.78081501    -0.04177966
      47     ang       3      10      13       0    63.10523560    -0.01822053
      48     ang      15      13      14       0   120.00000058     0.00150130
      49     ang      15      13      16       0   119.99999971    -0.00044782
      50     ang      15      13       5       0    89.99999981     0.00015583
      51     ang      15      13      10       0    72.25517988    -0.01525912
      52     ang      14      13      16       0   119.99999971    -0.00105347
      53     ang      14      13       5       0    90.00000000    -0.00011118
      54     ang      14      13      10       0    69.75509863     0.00997922
      55     ang      16      13       5       0    89.99999988    -0.00128181
      56     ang      16      13      10       0   130.60283348     0.00667842
      57     ang       5      13      10       0    40.63572331     0.00729663
      58     lao       4       5      13      14    88.66175515     0.05151473
      59     dih       6       2       3       1   185.43025046    -0.04710634
      60     dih       6       2       3       4     5.97435318    -0.11440400
      61     dih       6       2       3      10    95.22935729    -0.08606587
      62     dih      11       2       3       1    -5.83693566     0.12165619
      63     dih      11       2       3       4   174.70716706     0.05435853
      64     dih      11       2       3      10   263.96217117     0.08269666
      65     dih      10       2       3       1    90.20089317     0.03895953
      66     dih      10       2       3       4   -89.25500411    -0.02833813
      67     dih       1       3       4      12     3.58206089    -0.14395615
      68     dih       1       3       4       5   183.72850675    -0.06857466
      69     dih       2       3       4      12   183.06008625    -0.07938416
      70     dih       2       3       4       5     3.20653211    -0.00400267
      71     dih      10       3       4      12   130.84520156    -0.23552892
      72     dih      10       3       4       5   -49.00835258    -0.16014743
      73     dih       6       2      10       8    60.32627910     0.14403003
      74     dih       6       2      10       7   180.43650753     0.14413524
      75     dih       6       2      10       9   -59.39742086     0.15169293
      76     dih       6       2      10       3   239.33945908     0.00244572
      77     dih       6       2      10      13   -38.08258143     0.05012394
      78     dih       3       2      10       8   180.98682002     0.14158431
      79     dih       3       2      10       7   -58.90295155     0.14168953
      80     dih       3       2      10       9    61.26312006     0.14924722
      81     dih       3       2      10      13    82.57795949     0.04767822
      82     dih      11       2      10       8   -57.99296306     0.14050676
      83     dih      11       2      10       7    62.11726537     0.14061197
      84     dih      11       2      10       9   182.28333697     0.14816966
      85     dih      11       2      10       3   121.02021691    -0.00107756
      86     dih      11       2      10      13   203.59817640     0.04660067
      87     dih       1       3      10       8   248.09637082     0.12941720
      88     dih       1       3      10       7     8.59151161     0.10976018
      89     dih       1       3      10       9   128.37671670     0.11363644
      90     dih       1       3      10       2   246.98173076    -0.03059484
      91     dih       1       3      10      13   161.04778232     0.04147121
      92     dih       2       3      10       8     1.11464006     0.16001204
      93     dih       2       3      10       7   121.60978085     0.14035502
      94     dih       2       3      10       9   241.39498594     0.14423128
      95     dih       2       3      10      13   -85.93394844     0.07206605
      96     dih       4       3      10       8   117.87482254     0.19806583
      97     dih       4       3      10       7   238.36996333     0.17840881
      98     dih       4       3      10       9    -1.84483158     0.18228507
      99     dih       4       3      10       2   116.76018248     0.03805379
     100     dih       4       3      10      13    30.82623404     0.11011984
     101     dih       8      10      13      15   -18.98624451    -0.01996516
     102     dih       8      10      13      14   113.66756741    -0.01356891
     103     dih       8      10      13      16   226.35910329    -0.00750041
     104     dih       8      10      13       5   229.12022793    -0.03542767
     105     dih       7      10      13      15   142.19535810    -0.01441473
     106     dih       7      10      13      14   -85.15082997    -0.00801848
     107     dih       7      10      13      16    27.54070590    -0.00194999
     108     dih       7      10      13       5    30.30183054    -0.02987725
     109     dih       9      10      13      15   215.87011817     0.08972404
     110     dih       9      10      13      14   -11.47606990     0.09612029
     111     dih       9      10      13      16   101.21546597     0.10218878
     112     dih       9      10      13       5   103.97659061     0.07426152
     113     dih       2      10      13      15    72.33375089    -0.07738879
     114     dih       2      10      13      14   204.98756282    -0.07099254
     115     dih       2      10      13      16   -42.32090131    -0.06492404
     116     dih       2      10      13       5   -39.55977667    -0.09285130
     117     dih       3      10      13      15    97.69288292    -0.05062109
     118     dih       3      10      13      14   230.34669484    -0.04422484
     119     dih       3      10      13      16   -16.96176928    -0.03815634
     120     dih       3      10      13       5   -14.20064464    -0.06608360
     121     dih      12       4      13      14   -89.11210872     0.20191652
 
----------------------------------------------------------------------
Geometry Convergence after Step   1       (Hartree/Angstrom,Angstrom)
----------------------------------------------------------------------
current energy                               -3.08406124 Hartree
energy change                      -3.08406124     0.00016000    F
constrained gradient max            0.04036793     0.00100000    F
constrained gradient rms            0.01532370     0.00066667    F
gradient max                        0.04036793
gradient rms                        0.01532370
cart. step max                      0.06993931     0.01000000    F
cart. step rms                      0.01993553     0.00666667    F
 
 
--------
Geometry
--------
Formula: C4H7AlF3O
Atoms
  Index Symbol   x (angstrom)   y (angstrom)   z (angstrom)
      1      H     0.18799241    -1.87255311    -0.23537619
      2      C    -0.92481071    -0.13810952     0.28469422
      3      C     0.20864030    -0.79670242    -0.06379441
      4      C     1.51599671    -0.14882408    -0.22700788
      5      O     1.76177040     1.03462793    -0.01414324
      6      H    -0.93153324     0.94365237     0.36762734
      7      H    -1.19078570    -1.15316234     3.01459000
      8      H    -2.10377073     0.46654616     2.85987162
      9      H    -0.24541563     0.45516247     3.02738404
     10      C    -1.16921064    -0.08220538     2.85453247
     11      H    -1.87676059    -0.64424928     0.30254989
     12      H     2.31008143    -0.80823474    -0.58345417
     13     Al     2.50264791     4.22211450     0.36727731
     14      F     2.95514478     4.01897395     1.92305930
     15      F     0.97917474     4.70368321     0.02912297
     16      F     3.62702256     4.19782005    -0.81611687
 
Total System Charge             0.00000
 
 *** GOStep2 ***

 Energy gradients wrt nuclear displacements
 ==========================================

     Atom      Cartesian (a.u./angstrom)
                 X         Y         Z
 ----------------------------------------
     1 H     0.000130 -0.000007  0.000029
     2 C    -0.006519 -0.004422  0.000997
     3 C    -0.001804 -0.000087 -0.001409
     4 C     0.017463 -0.014317 -0.004430
     5 O     0.000318 -0.007136 -0.002573
     6 H    -0.000600 -0.000633  0.000171
     7 H    -0.000007 -0.000010  0.000012
     8 H    -0.000016  0.000026 -0.000055
     9 H    -0.000117 -0.000072  0.000006
    10 C    -0.000242  0.000024 -0.000578
    11 H     0.007358  0.003999 -0.000035
    12 H    -0.017529  0.014417  0.006719
    13 Al    0.000382  0.010073  0.002005
    14 F    -0.005543  0.003413 -0.021164
    15 F     0.021364 -0.005677  0.004531
    16 F    -0.014637  0.000411  0.015772
 ----------------------------------------
 Mulliken charges used for AMS results%charges...
Hessian eigenvector     1(     0.002) has overlap with TSRC:    0.36729E-02
Hessian eigenvector     2(     0.003) has overlap with TSRC:    0.87779E-01
Hessian eigenvector     3(     0.005) has overlap with TSRC:    0.32828E+00
Hessian eigenvector     4(     0.006) has overlap with TSRC:    0.29308E+00
Hessian eigenvector     5(     0.008) has overlap with TSRC:    0.27731E+00
Hessian eigenvector     6(     0.011) has overlap with TSRC:    0.13418E-01
Hessian eigenvector     7(     0.012) has overlap with TSRC:    0.29210E-01
Hessian eigenvector     8(     0.019) has overlap with TSRC:    0.23349E-03
Hessian eigenvector     9(     0.021) has overlap with TSRC:    0.24730E-01
Hessian eigenvector    10(     0.027) has overlap with TSRC:    0.11497E+00
Hessian eigenvector    11(     0.027) has overlap with TSRC:    0.12879E+00
Hessian eigenvector    12(     0.032) has overlap with TSRC:    0.22265E-01
Hessian eigenvector    13(     0.042) has overlap with TSRC:    0.30417E-01
Hessian eigenvector    14(     0.043) has overlap with TSRC:    0.10069E-01
Hessian eigenvector    15(     0.046) has overlap with TSRC:    0.51792E-02
Hessian eigenvector    16(     0.052) has overlap with TSRC:    0.31477E-01
Hessian eigenvector    17(     0.055) has overlap with TSRC:    0.10760E-01
Hessian eigenvector    18(     0.059) has overlap with TSRC:    0.90600E-02
Hessian eigenvector    19(     0.072) has overlap with TSRC:    0.20737E-02
Hessian eigenvector    20(     0.081) has overlap with TSRC:    0.39014E-02
Hessian eigenvector    21(     0.086) has overlap with TSRC:    0.68898E-01
Hessian eigenvector    22(     0.089) has overlap with TSRC:    0.81708E-01
Hessian eigenvector    23(     0.098) has overlap with TSRC:    0.92502E-01
Hessian eigenvector    24(     0.110) has overlap with TSRC:    0.65764E-01
Hessian eigenvector    25(     0.121) has overlap with TSRC:    0.82456E-01
Hessian eigenvector    26(     0.155) has overlap with TSRC:    0.61436E-02
Hessian eigenvector    27(     0.161) has overlap with TSRC:    0.68715E-02
Hessian eigenvector    28(     0.222) has overlap with TSRC:    0.59023E-02
Hessian eigenvector    29(     0.230) has overlap with TSRC:    0.27951E-03
Hessian eigenvector    30(     0.461) has overlap with TSRC:    0.76663E-01
Hessian eigenvector    31(     0.488) has overlap with TSRC:    0.25720E-02
Hessian eigenvector    32(     0.489) has overlap with TSRC:    0.31209E-02
Hessian eigenvector    33(     0.500) has overlap with TSRC:    0.78543E-06
Hessian eigenvector    34(     0.503) has overlap with TSRC:    0.61632E-05
Hessian eigenvector    35(     0.503) has overlap with TSRC:    0.16372E-06
Hessian eigenvector    36(     0.503) has overlap with TSRC:    0.43532E-07
Hessian eigenvector    37(     0.503) has overlap with TSRC:    0.11268E-05
Hessian eigenvector    38(     0.509) has overlap with TSRC:    0.20944E-05
Hessian eigenvector    39(     0.558) has overlap with TSRC:    0.11918E-03
Hessian eigenvector    40(     0.567) has overlap with TSRC:    0.11667E-01
Hessian eigenvector    41(     0.580) has overlap with TSRC:    0.38005E-08
Hessian eigenvector    42(     0.580) has overlap with TSRC:    0.44856E-05
Hessian eigenvector     3 has the largest overlap with TSRC:  0.32828
           Primitive Internal Coordinates (atoms in internal order)
-------------------------------------------------------------------------------
    index    type      i       j       k       l   value(A,deg)     Max Ovl Vect
-------------------------------------------------------------------------------
       1     bnd       1       3       0       0     1.08964277     0.00000878
       2     bnd       2       6       0       0     1.08495709    -0.00007625
       3     bnd       2       3       0       0     1.35642919    -0.01548770
       4     bnd       3       4       0       0     1.46818451    -0.00052178
       5     bnd       4      12       0       0     1.09199218    -0.00303456
       6     bnd       4       5       0       0     1.22730384    -0.00019926
       7     bnd       8      10       0       0     1.08377089     0.00000872
       8     bnd       7      10       0       0     1.08306634     0.00000133
       9     bnd       9      10       0       0     1.08260755    -0.00001393
      10     bnd       2      11       0       0     1.07828792    -0.00101025
      11     bnd      13      15       0       0     1.63316480    -0.00287023
      12     bnd      13      14       0       0     1.63293512    -0.00281040
      13     bnd      13      16       0       0     1.63255333    -0.00272345
      14     bnd       2      10       0       0     2.58203896     0.46424920
      15     bnd       3      10       0       0     3.30539120     0.09250246
      16     bnd       5      13       0       0     3.29460950     0.00202502
      17     bnd      10      13       0       0     6.18030364     0.01081637
      18     ang       6       2       3       0   120.59194510     0.00790695
      19     ang       6       2      11       0   117.46933077     0.00830440
      20     ang       6       2      10       0    84.36149192     0.01546890
      21     ang       3       2      11       0   120.93445926     0.01199639
      22     ang       3       2      10       0   110.20063857    -0.17307503
      23     ang      11       2      10       0    84.84319086     0.01678398
      24     ang       1       3       2       0   120.26565817     0.00643492
      25     ang       1       3       4       0   115.78921254    -0.00091631
      26     ang       1       3      10       0   110.15449662    -0.04345661
      27     ang       2       3       4       0   123.94408667    -0.00514358
      28     ang       2       3      10       0    47.14776082     0.15524998
      29     ang       4       3      10       0   111.95935994    -0.05336086
      30     ang       3       4      12       0   114.66723713     0.00670226
      31     ang       3       4       5       0   125.77115633    -0.01261113
      32     ang      12       4       5       0   119.55608261     0.00573054
      33     lai       4       5      13      14   177.20685831    -0.02526771
      34     ang       8      10       7       0   118.86636804    -0.00140341
      35     ang       8      10       9       0   118.92806766     0.00576743
      36     ang       8      10       2       0    95.59454067     0.00053485
      37     ang       8      10       3       0   118.24601386     0.01843558
      38     ang       8      10      13       0    99.30366115    -0.07694049
      39     ang       7      10       9       0   118.96123055     0.00607512
      40     ang       7      10       2       0    97.32861605    -0.02118407
      41     ang       7      10       3       0    85.70084334    -0.02412649
      42     ang       7      10      13       0   139.46248436     0.04595579
      43     ang       9      10       2       0    95.09952497    -0.00832310
      44     ang       9      10       3       0    83.83225335    -0.02148454
      45     ang       9      10      13       0    37.96291325     0.09153998
      46     ang       2      10      13       0    63.78735140    -0.06142962
      47     ang       3      10      13       0    63.10002525    -0.02463389
      48     ang      15      13      14       0   119.50164311     0.00316440
      49     ang      15      13      16       0   119.78608313    -0.00383225
      50     ang      15      13       5       0    92.95422221     0.01599441
      51     ang      15      13      10       0    74.60178089    -0.08816840
      52     ang      14      13      16       0   119.86273869     0.00066786
      53     ang      14      13       5       0    92.99555142    -0.00825376
      54     ang      14      13      10       0    72.21540421     0.08529263
      55     ang      16      13       5       0    93.24237678     0.00004467
      56     ang      16      13      10       0   133.67328200     0.01540401
      57     ang       5      13      10       0    40.46306791     0.01020963
      58     lao       4       5      13      14    87.73095293     0.07148523
      59     dih       6       2       3       1   185.66394973    -0.06719681
      60     dih       6       2       3       4     6.05142790    -0.11686750
      61     dih       6       2       3      10    95.50374097    -0.08679891
      62     dih      11       2       3       1    -6.08902708     0.10442181
      63     dih      11       2       3       4   174.29845109     0.05475112
      64     dih      11       2       3      10   263.75076417     0.08481971
      65     dih      10       2       3       1    90.16020876     0.01960210
      66     dih      10       2       3       4   -89.45231307    -0.03006859
      67     dih       1       3       4      12     4.76456281    -0.16360404
      68     dih       1       3       4       5   183.90039309    -0.08069882
      69     dih       2       3       4      12   184.39287958    -0.11591535
      70     dih       2       3       4       5     3.52870986    -0.03301013
      71     dih      10       3       4      12   132.16789045    -0.27435764
      72     dih      10       3       4       5   -48.69627928    -0.19145242
      73     dih       6       2      10       8    59.61349103    -0.00779208
      74     dih       6       2      10       7   179.72419266    -0.01311292
      75     dih       6       2      10       9   -60.16836366    -0.01238444
      76     dih       6       2      10       3   239.43029967     0.00276088
      77     dih       6       2      10      13   -38.01991165     0.07983186
      78     dih       3       2      10       8   180.18319136    -0.01055296
      79     dih       3       2      10       7   -59.70610700    -0.01587380
      80     dih       3       2      10       9    60.40133667    -0.01514532
      81     dih       3       2      10      13    82.54978868     0.07707097
      82     dih      11       2      10       8   -58.70095677    -0.01094724
      83     dih      11       2      10       7    61.40974487    -0.01626808
      84     dih      11       2      10       9   181.51718854    -0.01553960
      85     dih      11       2      10       3   121.11585187    -0.00039428
      86     dih      11       2      10      13   203.66564056     0.07667669
      87     dih       1       3      10       8   247.13753395    -0.05822557
      88     dih       1       3      10       7     7.74709623    -0.06960704
      89     dih       1       3      10       9   127.51811696    -0.05631203
      90     dih       1       3      10       2   246.93057067    -0.04649684
      91     dih       1       3      10      13   160.96576986     0.06207823
      92     dih       2       3      10       8     0.20696328    -0.01172873
      93     dih       2       3      10       7   120.81652556    -0.02311020
      94     dih       2       3      10       9   240.58754629    -0.00981519
      95     dih       2       3      10      13   -85.96480081     0.10857506
      96     dih       4       3      10       8   116.77076041     0.02308305
      97     dih       4       3      10       7   237.38032269     0.01170158
      98     dih       4       3      10       9    -2.84865658     0.02499659
      99     dih       4       3      10       2   116.56379713     0.03481178
     100     dih       4       3      10      13    30.59899632     0.14338684
     101     dih       8      10      13      15   -17.01823470    -0.00870542
     102     dih       8      10      13      14   111.64648542    -0.00042020
     103     dih       8      10      13      16   226.27407341     0.06591554
     104     dih       8      10      13       5   229.07426033    -0.15025627
     105     dih       7      10      13      15   143.75810875    -0.14798434
     106     dih       7      10      13      14   -87.57717113    -0.13969912
     107     dih       7      10      13      16    27.05041687    -0.07336338
     108     dih       7      10      13       5    29.85060379    -0.28953518
     109     dih       9      10      13      15   217.04810634    -0.06777670
     110     dih       9      10      13      14   -14.28717354    -0.05949148
     111     dih       9      10      13      16   100.34041445     0.00684426
     112     dih       9      10      13       5   103.14060137    -0.20932755
     113     dih       2      10      13      15    74.66971646     0.01936424
     114     dih       2      10      13      14   203.33443658     0.02764945
     115     dih       2      10      13      16   -42.03797542     0.09398519
     116     dih       2      10      13       5   -39.23778850    -0.12218661
     117     dih       3      10      13      15   100.02363496     0.05028513
     118     dih       3      10      13      14   228.68835508     0.05857035
     119     dih       3      10      13      16   -16.68405693     0.12490609
     120     dih       3      10      13       5   -13.88387001    -0.09126572
     121     dih      12       4      13      14   -90.24209581     0.35536462
 
----------------------------------------------------------------------
Geometry Convergence after Step   2       (Hartree/Angstrom,Angstrom)
----------------------------------------------------------------------
current energy                               -3.08724089 Hartree
energy change                      -0.00317965     0.00016000    F
constrained gradient max            0.02137058     0.00100000    F
constrained gradient rms            0.00771280     0.00066667    F
gradient max                        0.02137058
gradient rms                        0.00771280
cart. step max                      0.05070335     0.01000000    F
cart. step rms                      0.01735933     0.00666667    F
 
 
--------
Geometry
--------
Formula: C4H7AlF3O
Atoms
  Index Symbol   x (angstrom)   y (angstrom)   z (angstrom)
      1      H     0.20979386    -1.88115452    -0.21806585
      2      C    -0.92688068    -0.16023543     0.30271908
      3      C     0.21323165    -0.80364371    -0.05600853
      4      C     1.50248753    -0.12976215    -0.24745933
      5      O     1.73192161     1.05313529    -0.01644292
      6      H    -0.94942113     0.92289243     0.36737543
      7      H    -1.20467996    -1.14336196     3.01912441
      8      H    -2.09885242     0.48568363     2.84974494
      9      H    -0.24047317     0.45313029     3.01988468
     10      C    -1.17083185    -0.07404658     2.85047715
     11      H    -1.87555321    -0.68163827     0.32652801
     12      H     2.31012011    -0.77696872    -0.63415751
     13     Al     2.51431613     4.21927965     0.37165420
     14      F     2.93975919     4.01394762     1.94607301
     15      F     0.98992907     4.72067590     0.01353974
     16      F     3.66131725     4.18060628    -0.80417010
 
Total System Charge             0.00000
 
 *** GOStep3 ***

 Energy gradients wrt nuclear displacements
 ==========================================

     Atom      Cartesian (a.u./angstrom)
                 X         Y         Z
 ----------------------------------------
     1 H     0.000151 -0.000203  0.000458
     2 C    -0.000547 -0.002565  0.000965
     3 C    -0.001977  0.000161 -0.000887
     4 C     0.006534 -0.004741 -0.003664
     5 O    -0.000140 -0.007966 -0.001208
     6 H    -0.000353 -0.000169  0.000146
     7 H     0.000144 -0.000063 -0.000312
     8 H    -0.000074  0.000044 -0.000214
     9 H     0.000122 -0.000183 -0.000227
    10 C    -0.001082  0.000419  0.001041
    11 H     0.002109  0.001418 -0.000405
    12 H    -0.006619  0.005470  0.003069
    13 Al    0.001353  0.008392  0.001348
    14 F    -0.002438  0.001860 -0.008776
    15 F     0.008905 -0.002078  0.002362
    16 F    -0.006088  0.000205  0.006306
 ----------------------------------------
 Mulliken charges used for AMS results%charges...
Hessian eigenvector     1(     0.002) has overlap with TSRC:    0.97725E-01
Hessian eigenvector     2(     0.002) has overlap with TSRC:    0.27363E+00
Hessian eigenvector     3(     0.005) has overlap with TSRC:    0.12194E+00
Hessian eigenvector     4(     0.007) has overlap with TSRC:    0.33449E+00
Hessian eigenvector     5(     0.008) has overlap with TSRC:    0.26054E+00
Hessian eigenvector     6(     0.011) has overlap with TSRC:    0.14313E-01
Hessian eigenvector     7(     0.012) has overlap with TSRC:    0.19430E-03
Hessian eigenvector     8(     0.019) has overlap with TSRC:    0.24621E-02
Hessian eigenvector     9(     0.021) has overlap with TSRC:    0.38460E-01
Hessian eigenvector    10(     0.027) has overlap with TSRC:    0.11217E+00
Hessian eigenvector    11(     0.027) has overlap with TSRC:    0.12705E+00
Hessian eigenvector    12(     0.032) has overlap with TSRC:    0.18472E-01
Hessian eigenvector    13(     0.042) has overlap with TSRC:    0.31120E-01
Hessian eigenvector    14(     0.043) has overlap with TSRC:    0.11566E-01
Hessian eigenvector    15(     0.046) has overlap with TSRC:    0.54455E-02
Hessian eigenvector    16(     0.052) has overlap with TSRC:    0.34636E-01
Hessian eigenvector    17(     0.055) has overlap with TSRC:    0.11612E-01
Hessian eigenvector    18(     0.059) has overlap with TSRC:    0.11360E-01
Hessian eigenvector    19(     0.072) has overlap with TSRC:    0.35309E-02
Hessian eigenvector    20(     0.080) has overlap with TSRC:    0.21048E-02
Hessian eigenvector    21(     0.085) has overlap with TSRC:    0.72011E-01
Hessian eigenvector    22(     0.089) has overlap with TSRC:    0.80224E-01
Hessian eigenvector    23(     0.098) has overlap with TSRC:    0.91337E-01
Hessian eigenvector    24(     0.110) has overlap with TSRC:    0.64657E-01
Hessian eigenvector    25(     0.120) has overlap with TSRC:    0.78507E-01
Hessian eigenvector    26(     0.155) has overlap with TSRC:    0.85386E-02
Hessian eigenvector    27(     0.160) has overlap with TSRC:    0.30047E-02
Hessian eigenvector    28(     0.220) has overlap with TSRC:    0.15762E-01
Hessian eigenvector    29(     0.230) has overlap with TSRC:    0.14780E-02
Hessian eigenvector    30(     0.461) has overlap with TSRC:    0.78558E-01
Hessian eigenvector    31(     0.486) has overlap with TSRC:    0.50595E-02
Hessian eigenvector    32(     0.489) has overlap with TSRC:    0.34376E-02
Hessian eigenvector    33(     0.500) has overlap with TSRC:    0.91814E-04
Hessian eigenvector    34(     0.503) has overlap with TSRC:    0.92140E-04
Hessian eigenvector    35(     0.503) has overlap with TSRC:    0.49204E-04
Hessian eigenvector    36(     0.503) has overlap with TSRC:    0.13538E-05
Hessian eigenvector    37(     0.503) has overlap with TSRC:    0.33554E-04
Hessian eigenvector    38(     0.509) has overlap with TSRC:    0.46879E-03
Hessian eigenvector    39(     0.556) has overlap with TSRC:    0.23188E-02
Hessian eigenvector    40(     0.567) has overlap with TSRC:    0.11473E-01
Hessian eigenvector    41(     0.580) has overlap with TSRC:    0.12909E-03
Hessian eigenvector    42(     0.580) has overlap with TSRC:    0.15984E-04
Hessian eigenvector     4 has the largest overlap with TSRC:  0.33449
           Primitive Internal Coordinates (atoms in internal order)
-------------------------------------------------------------------------------
    index    type      i       j       k       l   value(A,deg)     Max Ovl Vect
-------------------------------------------------------------------------------
       1     bnd       1       3       0       0     1.08963478    -0.00030376
       2     bnd       2       6       0       0     1.08529005     0.00021677
       3     bnd       2       3       0       0     1.35739303    -0.01368450
       4     bnd       3       4       0       0     1.46729359    -0.00258996
       5     bnd       4      12       0       0     1.10484488     0.01540017
       6     bnd       4       5       0       0     1.22688832    -0.00125760
       7     bnd       8      10       0       0     1.08375302    -0.00018192
       8     bnd       7      10       0       0     1.08306185    -0.00001114
       9     bnd       9      10       0       0     1.08267338    -0.00000796
      10     bnd       2      11       0       0     1.08277761     0.00382723
      11     bnd      13      15       0       0     1.64420196     0.01524632
      12     bnd      13      14       0       0     1.64376326     0.01503473
      13     bnd      13      16       0       0     1.64306725     0.01410800
      14     bnd       2      10       0       0     2.56086154     0.47394112
      15     bnd       3      10       0       0     3.30084879     0.09528991
      16     bnd       5      13       0       0     3.28439197    -0.03740086
      17     bnd      10      13       0       0     6.17717807    -0.01410634
      18     ang       6       2       3       0   120.41419575     0.01449782
      19     ang       6       2      11       0   117.45655216     0.01108511
      20     ang       6       2      10       0    84.55800559     0.01828371
      21     ang       3       2      11       0   120.89452851     0.00437305
      22     ang       3       2      10       0   111.03207052    -0.17700156
      23     ang      11       2      10       0    84.88630616     0.00964597
      24     ang       1       3       2       0   120.35683489    -0.00351296
      25     ang       1       3       4       0   115.94606080    -0.01425212
      26     ang       1       3      10       0   110.37777154    -0.01425863
      27     ang       2       3       4       0   123.69702214     0.01818885
      28     ang       2       3      10       0    46.39683719     0.15846729
      29     ang       4       3      10       0   112.44549981    -0.07190660
      30     ang       3       4      12       0   114.76695140    -0.00741752
      31     ang       3       4       5       0   125.62986539     0.01282664
      32     ang      12       4       5       0   119.60318304    -0.00552625
      33     lai       4       5      13      14   176.88677856     0.06219594
      34     ang       8      10       7       0   118.89870357     0.00288976
      35     ang       8      10       9       0   118.97697692    -0.00403345
      36     ang       8      10       2       0    95.64030323    -0.00426561
      37     ang       8      10       3       0   118.20419189     0.01532444
      38     ang       8      10      13       0    98.72037155    -0.00607203
      39     ang       7      10       9       0   118.89671239    -0.00974091
      40     ang       7      10       2       0    97.16139734     0.01144155
      41     ang       7      10       3       0    86.10009046     0.04606316
      42     ang       7      10      13       0   140.11552851     0.03293716
      43     ang       9      10       2       0    95.17506481     0.02310450
      44     ang       9      10       3       0    83.40141085    -0.03460291
      45     ang       9      10      13       0    37.97480777    -0.04569136
      46     ang       2      10      13       0    64.36272261     0.08213462
      47     ang       3      10      13       0    63.26489048     0.02222224
      48     ang      15      13      14       0   119.12199442    -0.00266490
      49     ang      15      13      16       0   119.90251755     0.00334286
      50     ang      15      13       5       0    92.71543577    -0.02508478
      51     ang      15      13      10       0    75.30039572     0.04188884
      52     ang      14      13      16       0   120.12031388    -0.00067796
      53     ang      14      13       5       0    93.11936704    -0.00994182
      54     ang      14      13      10       0    71.53219746    -0.05155778
      55     ang      16      13       5       0    93.38492291     0.00124768
      56     ang      16      13      10       0   133.41463972    -0.02463886
      57     ang       5      13      10       0    40.11941405    -0.02304150
      58     lao       4       5      13      14    86.11495868    -0.11025357
      59     dih       6       2       3       1   186.16338718    -0.00908938
      60     dih       6       2       3       4     6.27197988    -0.06513897
      61     dih       6       2       3      10    96.19404749    -0.08300316
      62     dih      11       2       3       1    -6.85285644     0.17341944
      63     dih      11       2       3       4   173.25573626     0.11736985
      64     dih      11       2       3      10   263.17780387     0.09950566
      65     dih      10       2       3       1    89.96933969     0.07391378
      66     dih      10       2       3       4   -89.92206761     0.01786419
      67     dih       1       3       4      12     5.80368004     0.03909084
      68     dih       1       3       4       5   185.79882108     0.09356466
      69     dih       2       3       4      12   185.69947253     0.09290480
      70     dih       2       3       4       5     5.69461356     0.14737862
      71     dih      10       3       4      12   134.11844784    -0.05897680
      72     dih      10       3       4       5   -45.88641113    -0.00450298
      73     dih       6       2      10       8    58.07555562    -0.14628722
      74     dih       6       2      10       7   178.19740334    -0.14205202
      75     dih       6       2      10       9   -61.77584054    -0.14528028
      76     dih       6       2      10       3   239.45560337    -0.00493592
      77     dih       6       2      10      13   -38.90825901    -0.14368873
      78     dih       3       2      10       8   178.61995226    -0.14135130
      79     dih       3       2      10       7   -61.25820002    -0.13711610
      80     dih       3       2      10       9    58.76855609    -0.14034436
      81     dih       3       2      10      13    81.63613763    -0.13875281
      82     dih      11       2      10       8   -60.18875379    -0.15301521
      83     dih      11       2      10       7    59.93309394    -0.14878001
      84     dih      11       2      10       9   179.95985005    -0.15200827
      85     dih      11       2      10       3   121.19129396    -0.01166391
      86     dih      11       2      10      13   202.82743158    -0.15041672
      87     dih       1       3      10       8   245.44117042    -0.16759870
      88     dih       1       3      10       7     6.31066847    -0.13422580
      89     dih       1       3      10       9   126.01139583    -0.14649020
      90     dih       1       3      10       2   246.99960831    -0.00810227
      91     dih       1       3      10      13   159.88637604    -0.16429274
      92     dih       2       3      10       8    -1.55843789    -0.15949643
      93     dih       2       3      10       7   119.31106016    -0.12612352
      94     dih       2       3      10       9   239.01178752    -0.13838792
      95     dih       2       3      10      13   -87.11323227    -0.15619046
      96     dih       4       3      10       8   114.26024997    -0.07743615
      97     dih       4       3      10       7   235.12974802    -0.04406325
      98     dih       4       3      10       9    -5.16952462    -0.05632765
      99     dih       4       3      10       2   115.81868786     0.08206028
     100     dih       4       3      10      13    28.70545559    -0.07413019
     101     dih       8      10      13      15   -17.25142635    -0.03408146
     102     dih       8      10      13      14   110.92385875    -0.03099725
     103     dih       8      10      13      16   225.27671163    -0.07082370
     104     dih       8      10      13       5   229.96007618     0.04875966
     105     dih       7      10      13      15   143.83302898     0.08200333
     106     dih       7      10      13      14   -87.99168592     0.08508754
     107     dih       7      10      13      16    26.36116696     0.04526109
     108     dih       7      10      13       5    31.04453151     0.16484445
     109     dih       9      10      13      15   215.87586737    -0.06782838
     110     dih       9      10      13      14   -15.94884753    -0.06474417
     111     dih       9      10      13      16    98.40400535    -0.10457062
     112     dih       9      10      13       5   103.08736990     0.01501274
     113     dih       2      10      13      15    74.85051759    -0.02238738
     114     dih       2      10      13      14   203.02580269    -0.01930318
     115     dih       2      10      13      16   -42.62134443    -0.05912962
     116     dih       2      10      13       5   -37.93797988     0.06045373
     117     dih       3      10      13      15   100.01403984    -0.01525081
     118     dih       3      10      13      14   228.18932494    -0.01216660
     119     dih       3      10      13      16   -17.45782218    -0.05199305
     120     dih       3      10      13       5   -12.77445763     0.06759031
     121     dih      12       4      13      14   -92.68911763     0.06710809
 
----------------------------------------------------------------------
Geometry Convergence after Step   3       (Hartree/Angstrom,Angstrom)
----------------------------------------------------------------------
current energy                               -3.08807497 Hartree
energy change                      -0.00083408     0.00016000    F
constrained gradient max            0.00890631     0.00100000    F
constrained gradient rms            0.00346276     0.00066667    F
gradient max                        0.00890631
gradient rms                        0.00346276
cart. step max                      0.05619392     0.01000000    F
cart. step rms                      0.01856939     0.00666667    F
 
 
--------
Geometry
--------
Formula: C4H7AlF3O
Atoms
  Index Symbol   x (angstrom)   y (angstrom)   z (angstrom)
      1      H     0.20594051    -1.87477223    -0.23010689
      2      C    -0.90550839    -0.15153591     0.35106157
      3      C     0.22202734    -0.80086282    -0.04688782
      4      C     1.51073308    -0.12944332    -0.24207657
      5      O     1.73714975     1.05250181    -0.00487809
      6      H    -0.91280720     0.93141156     0.42356935
      7      H    -1.22789583    -1.14995302     2.99429333
      8      H    -2.10729806     0.48623069     2.82322956
      9      H    -0.25154915     0.43961473     3.01913853
     10      C    -1.18322790    -0.07979671     2.83371557
     11      H    -1.86444475    -0.65806193     0.35857025
     12      H     2.30874790    -0.76671746    -0.67974606
     13     Al     2.50798937     4.21144019     0.36258469
     14      F     2.92024382     4.01490537     1.94746950
     15      F     0.97772755     4.70175585    -0.01162231
     16      F     3.66835596     4.17182297    -0.80749820
 
Total System Charge             0.00000
 
 *** GOStep4 ***

 Energy gradients wrt nuclear displacements
 ==========================================

     Atom      Cartesian (a.u./angstrom)
                 X         Y         Z
 ----------------------------------------
     1 H     0.000191 -0.000295  0.000649
     2 C     0.004260 -0.002712 -0.000521
     3 C    -0.003924  0.001091 -0.005477
     4 C     0.006008 -0.001257  0.006452
     5 O    -0.002908 -0.009287 -0.003951
     6 H    -0.000211  0.000107  0.000640
     7 H     0.000027 -0.000302 -0.001334
     8 H    -0.000137 -0.000059 -0.000702
     9 H     0.000408 -0.000024 -0.001343
    10 C    -0.002874  0.001464  0.006127
    11 H     0.000040  0.000553  0.000237
    12 H    -0.002600  0.002191 -0.001939
    13 Al    0.001746  0.008242  0.000913
    14 F    -0.000979  0.000787 -0.002648
    15 F     0.002855 -0.000351  0.001061
    16 F    -0.001903 -0.000149  0.001837
 ----------------------------------------
 Mulliken charges used for AMS results%charges...
Hessian eigenvector     1(    -0.005) has overlap with TSRC:    0.45695E+00
Hessian eigenvector     1 has the largest overlap with TSRC:  0.45695
           Primitive Internal Coordinates (atoms in internal order)
-------------------------------------------------------------------------------
    index    type      i       j       k       l   value(A,deg)     Max Ovl Vect
-------------------------------------------------------------------------------
       1     bnd       1       3       0       0     1.08954552     0.00078592
       2     bnd       2       6       0       0     1.08539664     0.00072338
       3     bnd       2       3       0       0     1.36063439    -0.03540958
       4     bnd       3       4       0       0     1.46617369     0.00667248
       5     bnd       4      12       0       0     1.11108081    -0.00760945
       6     bnd       4       5       0       0     1.22658955    -0.00671006
       7     bnd       8      10       0       0     1.08369859     0.00038054
       8     bnd       7      10       0       0     1.08305815     0.00040558
       9     bnd       9      10       0       0     1.08267965     0.00053151
      10     bnd       2      11       0       0     1.08452015    -0.00031431
      11     bnd      13      15       0       0     1.64989137    -0.00870035
      12     bnd      13      14       0       0     1.64937550    -0.00841254
      13     bnd      13      16       0       0     1.64836710    -0.00744714
      14     bnd       2      10       0       0     2.49916897     0.65062911
      15     bnd       3      10       0       0     3.28520235     0.18500723
      16     bnd       5      13       0       0     3.27232552     0.07498566
      17     bnd      10      13       0       0     6.17626804     0.00864576
      18     ang       6       2       3       0   120.08322683     0.02264414
      19     ang       6       2      11       0   117.36055986     0.00894400
      20     ang       6       2      10       0    84.50555201    -0.00673415
      21     ang       3       2      11       0   120.78795530     0.00986511
      22     ang       3       2      10       0   113.34874825    -0.20815448
      23     ang      11       2      10       0    84.73698416     0.00598755
      24     ang       1       3       2       0   120.48563598    -0.00287238
      25     ang       1       3       4       0   116.22891859    -0.01902480
      26     ang       1       3      10       0   110.94515763    -0.04033693
      27     ang       2       3       4       0   123.28303242     0.02198143
      28     ang       2       3      10       0    44.30183405     0.19437813
      29     ang       4       3      10       0   113.09124234    -0.10315620
      30     ang       3       4      12       0   114.90283268    -0.00177026
      31     ang       3       4       5       0   125.29421099     0.00442027
      32     ang      12       4       5       0   119.75435810    -0.00223485
      33     lai       4       5      13      14   176.22326999     0.12235953
      34     ang       8      10       7       0   118.83938635     0.00945384
      35     ang       8      10       9       0   119.00298229     0.00405772
      36     ang       8      10       2       0    95.74705761    -0.01339669
      37     ang       8      10       3       0   118.09287776     0.00088961
      38     ang       8      10      13       0    98.21234953    -0.00043719
      39     ang       7      10       9       0   118.95546075    -0.00019931
      40     ang       7      10       2       0    97.09433222    -0.00815186
      41     ang       7      10       3       0    86.03027148     0.00574412
      42     ang       7      10      13       0   140.39758740     0.00232144
      43     ang       9      10       2       0    95.06444903    -0.01559265
      44     ang       9      10       3       0    83.53335182    -0.04419334
      45     ang       9      10      13       0    38.82226384    -0.05772080
      46     ang       2      10      13       0    63.64535594     0.05020829
      47     ang       3      10      13       0    63.00131238     0.01728763
      48     ang      15      13      14       0   119.02380017     0.00235207
      49     ang      15      13      16       0   119.93733248     0.00168448
      50     ang      15      13       5       0    92.46051801     0.00562112
      51     ang      15      13      10       0    75.10275481    -0.00583586
      52     ang      14      13      16       0   120.21695820    -0.00403655
      53     ang      14      13       5       0    92.96656137    -0.00947537
      54     ang      14      13      10       0    71.46597286    -0.00025381
      55     ang      16      13       5       0    93.60696723    -0.02749347
      56     ang      16      13      10       0   133.47374752    -0.02204157
      57     ang       5      13      10       0    39.95278248     0.00505954
      58     lao       4       5      13      14    86.01171736    -0.03690768
      59     dih       6       2       3       1   186.90984954    -0.07471944
      60     dih       6       2       3       4     7.49662548    -0.08577387
      61     dih       6       2       3      10    97.44307639    -0.13021191
      62     dih      11       2       3       1    -8.63363456     0.17712683
      63     dih      11       2       3       4   171.95314138     0.16607240
      64     dih      11       2       3      10   261.89959229     0.12163436
      65     dih      10       2       3       1    89.46677315     0.05549247
      66     dih      10       2       3       4   -89.94645091     0.04443804
      67     dih       1       3       4      12     7.28293302     0.17042431
      68     dih       1       3       4       5   184.72750525    -0.02261187
      69     dih       2       3       4      12   186.71923485     0.18109748
      70     dih       2       3       4       5     4.16380707    -0.01193870
      71     dih      10       3       4      12   137.31939809     0.00291819
      72     dih      10       3       4       5   -45.23602968    -0.19011799
      73     dih       6       2      10       8    58.55778969    -0.06981958
      74     dih       6       2      10       7   178.62783963    -0.06443812
      75     dih       6       2      10       9   -61.31880502    -0.06927492
      76     dih       6       2      10       3   239.53822415    -0.00146647
      77     dih       6       2      10      13   -37.77804302    -0.07709805
      78     dih       3       2      10       8   179.01956554    -0.06835311
      79     dih       3       2      10       7   -60.91038453    -0.06297165
      80     dih       3       2      10       9    59.14297082    -0.06780845
      81     dih       3       2      10      13    82.68373283    -0.07563158
      82     dih      11       2      10       8   -59.64056135    -0.07900771
      83     dih      11       2      10       7    60.42948858    -0.07362625
      84     dih      11       2      10       9   180.48284393    -0.07846306
      85     dih      11       2      10       3   121.33987311    -0.01065460
      86     dih      11       2      10      13   204.02360593    -0.08628618
      87     dih       1       3      10       8   246.21638776    -0.10851410
      88     dih       1       3      10       7     6.94991672    -0.09406109
      89     dih       1       3      10       9   126.70325434    -0.08863617
      90     dih       1       3      10       2   247.32218639    -0.03133997
      91     dih       1       3      10      13   161.39386179    -0.11722946
      92     dih       2       3      10       8    -1.10579863    -0.07717412
      93     dih       2       3      10       7   119.62773032    -0.06272111
      94     dih       2       3      10       9   239.38106794    -0.05729619
      95     dih       2       3      10      13   -85.92832460    -0.08588949
      96     dih       4       3      10       8   113.55695208     0.03552608
      97     dih       4       3      10       7   234.29048104     0.04997909
      98     dih       4       3      10       9    -5.95618134     0.05540401
      99     dih       4       3      10       2   114.66275071     0.11270020
     100     dih       4       3      10      13    28.73442611     0.02681071
     101     dih       8      10      13      15   -17.62789103     0.04336768
     102     dih       8      10      13      14   110.59322258     0.05131086
     103     dih       8      10      13      16   225.02416844     0.04670621
     104     dih       8      10      13       5   229.61965300     0.02963569
     105     dih       7      10      13      15   142.25124137     0.09028733
     106     dih       7      10      13      14   -89.52764502     0.09823050
     107     dih       7      10      13      16    24.90330084     0.09362585
     108     dih       7      10      13       5    29.49878540     0.07655534
     109     dih       9      10      13      15   215.35423466    -0.00498302
     110     dih       9      10      13      14   -16.42465173     0.00296015
     111     dih       9      10      13      16    98.00629413    -0.00164450
     112     dih       9      10      13       5   102.60177869    -0.01871502
     113     dih       2      10      13      15    74.74541152     0.03675912
     114     dih       2      10      13      14   202.96652513     0.04470229
     115     dih       2      10      13      16   -42.60252901     0.04009764
     116     dih       2      10      13       5   -38.00704445     0.02302712
     117     dih       3      10      13      15    99.78785391     0.04357660
     118     dih       3      10      13      14   228.00896752     0.05151977
     119     dih       3      10      13      16   -17.56008662     0.04691512
     120     dih       3      10      13       5   -12.96460206     0.02984460
     121     dih      12       4      13      14   -96.40252828     0.06799535
 
----------------------------------------------------------------------
Geometry Convergence after Step   4       (Hartree/Angstrom,Angstrom)
----------------------------------------------------------------------
current energy                               -3.08822920 Hartree
energy change                      -0.00015423     0.00016000    T
constrained gradient max            0.00928892     0.00100000    F
constrained gradient rms            0.00298535     0.00066667    F
gradient max                        0.00928892
gradient rms                        0.00298535
cart. step max                      0.05209021     0.01000000    F
cart. step rms                      0.01858850     0.00666667    F
 
 
--------
Geometry
--------
Formula: C4H7AlF3O
Atoms
  Index Symbol   x (angstrom)   y (angstrom)   z (angstrom)
      1      H     0.22553889    -1.88062819    -0.21498080
      2      C    -0.92727202    -0.17029515     0.31663233
      3      C     0.21854938    -0.80385446    -0.04913960
      4      C     1.49592979    -0.11224112    -0.24579042
      5      O     1.70731661     1.07243784    -0.00803999
      6      H    -0.95955858     0.91326101     0.37147914
      7      H    -1.21870802    -1.14030269     3.01980815
      8      H    -2.09125711     0.49921683     2.84414824
      9      H    -0.23414454     0.44305447     3.01776647
     10      C    -1.17060519    -0.07238861     2.84589034
     11      H    -1.87297259    -0.70172235     0.34393066
     12      H     2.30852923    -0.74313041    -0.67199551
     13     Al     2.52089408     4.21293535     0.36997328
     14      F     2.92108677     4.00333138     1.95874637
     15      F     0.99457331     4.71759596    -0.01182550
     16      F     3.68828397     4.16126990    -0.79578674
 
Total System Charge             0.00000
 
 *** GOStep5 ***

 Energy gradients wrt nuclear displacements
 ==========================================

     Atom      Cartesian (a.u./angstrom)
                 X         Y         Z
 ----------------------------------------
     1 H     0.000168 -0.000116  0.000132
     2 C     0.001179 -0.000319  0.000351
     3 C    -0.000557 -0.000072 -0.002994
     4 C     0.001604 -0.000863  0.004836
     5 O    -0.001707 -0.008087 -0.002740
     6 H    -0.000239  0.000128 -0.000233
     7 H     0.000169 -0.000008 -0.000436
     8 H     0.000043 -0.000031 -0.000232
     9 H     0.000161 -0.000254 -0.000319
    10 C    -0.001631  0.000692  0.002227
    11 H    -0.000488 -0.000102  0.000313
    12 H    -0.000542  0.000556 -0.002126
    13 Al    0.002420  0.008598  0.000824
    14 F    -0.000504  0.000219 -0.000085
    15 F     0.000161  0.000109  0.000486
    16 F    -0.000237 -0.000450 -0.000005
 ----------------------------------------
 Mulliken charges used for AMS results%charges...
Hessian eigenvector     1(    -0.002) has overlap with TSRC:    0.47095E+00
Hessian eigenvector     1 has the largest overlap with TSRC:  0.47095
           Primitive Internal Coordinates (atoms in internal order)
-------------------------------------------------------------------------------
    index    type      i       j       k       l   value(A,deg)     Max Ovl Vect
-------------------------------------------------------------------------------
       1     bnd       1       3       0       0     1.08949246     0.00068280
       2     bnd       2       6       0       0     1.08542368     0.00046894
       3     bnd       2       3       0       0     1.35944591    -0.03951461
       4     bnd       3       4       0       0     1.46584490     0.00610860
       5     bnd       4      12       0       0     1.11354834    -0.01084663
       6     bnd       4       5       0       0     1.22665150    -0.00804275
       7     bnd       8      10       0       0     1.08366774     0.00070304
       8     bnd       7      10       0       0     1.08305206     0.00077828
       9     bnd       9      10       0       0     1.08267332     0.00075133
      10     bnd       2      11       0       0     1.08513116    -0.00226036
      11     bnd      13      15       0       0     1.65230377    -0.01134878
      12     bnd      13      14       0       0     1.65175299    -0.01091756
      13     bnd      13      16       0       0     1.65059532    -0.00995448
      14     bnd       2      10       0       0     2.54282182     0.66806817
      15     bnd       3      10       0       0     3.29332523     0.18393238
[...]
    16     F      -0.005122   0.004809   0.002403
 
 Mode:    33      Frequency (cm-1):     1029.0385     Intensity (km/mol):        0.8679
 Index  Atom      ---- Displacements (x/y/z) ----
     1     H       0.002574   0.085607  -0.231907
     2     C       0.000754  -0.012427   0.004411
     3     C       0.028186   0.005956   0.093759
     4     C      -0.066875   0.035860  -0.194415
     5     O       0.012455  -0.020700   0.044789
     6     H       0.056154   0.020170  -0.054126
     7     H       0.000913  -0.000307   0.000581
     8     H       0.000131   0.000465  -0.000146
     9     H       0.000605   0.000034  -0.001942
    10     C      -0.000148  -0.000243   0.002502
    11     H      -0.063989   0.047801  -0.119618
    12     H       0.259635  -0.212506   0.862073
    13    Al      -0.000394   0.001995  -0.003035
    14     F       0.000009  -0.000347   0.000728
    15     F       0.000663  -0.000313   0.001000
    16     F      -0.000124  -0.000039  -0.000047
 
 Mode:    34      Frequency (cm-1):     1073.4082     Intensity (km/mol):        5.7266
 Index  Atom      ---- Displacements (x/y/z) ----
     1     H      -0.517746  -0.391360   0.138302
     2     C       0.028826   0.090628   0.015223
     3     C      -0.021392  -0.171982  -0.023080
     4     C       0.009726   0.027987  -0.030061
     5     O       0.022857   0.079622   0.018261
     6     H      -0.429057  -0.109489   0.139029
     7     H      -0.006356   0.001135   0.001042
     8     H      -0.001361  -0.002487  -0.005711
     9     H      -0.000278   0.003374  -0.002500
    10     C       0.000982  -0.000039  -0.000433
    11     H       0.357315  -0.208565  -0.226115
    12     H       0.114977   0.206322   0.131144
    13    Al      -0.001851  -0.004707  -0.000791
    14     F      -0.000564  -0.000373   0.000010
    15     F      -0.000493  -0.000325   0.000175
    16     F      -0.001421   0.000663   0.000495
 
 Mode:    35      Frequency (cm-1):     1277.6240     Intensity (km/mol):       10.5828
 Index  Atom      ---- Displacements (x/y/z) ----
     1     H      -0.770395  -0.177370   0.187759
     2     C       0.090189  -0.095737  -0.033536
     3     C      -0.065175   0.096272   0.029348
     4     C       0.011633   0.003443  -0.001843
     5     O      -0.009678   0.017662   0.006701
     6     H       0.499999   0.065638  -0.141590
     7     H       0.010936  -0.000383   0.002753
     8     H      -0.000667  -0.001011   0.010611
     9     H       0.003086  -0.010061   0.003478
    10     C      -0.000955   0.001497  -0.004254
    11     H       0.049032  -0.039283  -0.022260
    12     H      -0.042443  -0.157504  -0.024037
    13    Al      -0.001294  -0.001418  -0.000062
    14     F       0.000098   0.000257   0.000304
    15     F       0.000030   0.000349  -0.000123
    16     F       0.000599   0.000053  -0.000124
 
 Mode:    36      Frequency (cm-1):     1375.8187     Intensity (km/mol):        5.4020
 Index  Atom      ---- Displacements (x/y/z) ----
     1     H       0.005815   0.003112   0.001368
     2     C       0.000899   0.001041   0.000196
     3     C      -0.002941   0.000047   0.000521
     4     C      -0.004466   0.002316   0.001727
     5     O       0.003017  -0.005895  -0.002068
     6     H       0.002378   0.000672   0.002650
     7     H       0.791220  -0.102088   0.023089
     8     H       0.249503   0.439966  -0.003394
     9     H       0.048862  -0.303323   0.034037
    10     C      -0.091601  -0.002811  -0.004712
    11     H       0.009468  -0.006036  -0.005064
    12     H       0.010189   0.052423   0.007817
    13    Al       0.000097  -0.000043  -0.000228
    14     F      -0.000004   0.000018   0.000230
    15     F       0.000017   0.000065   0.000007
    16     F      -0.000001   0.000073   0.000051
 
 Mode:    37      Frequency (cm-1):     1379.7238     Intensity (km/mol):        3.1664
 Index  Atom      ---- Displacements (x/y/z) ----
     1     H      -0.038011  -0.025394   0.006836
     2     C       0.002853  -0.001572  -0.001522
     3     C       0.020288  -0.000479  -0.005621
     4     C       0.009640  -0.005573  -0.004889
     5     O      -0.009010   0.017582   0.006722
     6     H      -0.081922  -0.034135   0.015321
     7     H      -0.107182  -0.057353  -0.068379
     8     H       0.402368   0.466384   0.093742
     9     H      -0.319775   0.649690   0.059517
    10     C       0.001636  -0.089110  -0.006495
    11     H      -0.070981   0.060817   0.029606
    12     H      -0.041767  -0.182291  -0.024236
    13    Al      -0.000473   0.000483   0.000428
    14     F       0.000069  -0.000264  -0.000531
    15     F       0.000076  -0.000345   0.000109
    16     F       0.000021  -0.000340  -0.000106
 
 Mode:    38      Frequency (cm-1):     1385.0221     Intensity (km/mol):      103.6837
 Index  Atom      ---- Displacements (x/y/z) ----
     1     H       0.072151   0.084600  -0.011151
     2     C       0.005514  -0.003995  -0.000751
     3     C      -0.072026   0.016735   0.023492
     4     C      -0.054587   0.019251   0.023507
     5     O       0.042375  -0.079740  -0.031397
     6     H       0.263658   0.094226  -0.052723
     7     H      -0.081019  -0.008530  -0.020037
     8     H       0.093407   0.096953   0.025753
     9     H      -0.089811   0.196686   0.012837
    10     C       0.007032  -0.023787  -0.003959
    11     H       0.199683  -0.163373  -0.071719
    12     H       0.180064   0.834447   0.115809
    13    Al       0.001621  -0.001271  -0.000828
    14     F       0.000214   0.001011   0.001391
    15     F      -0.000252   0.001407  -0.000722
    16     F       0.000256   0.001128   0.000296
 
 Mode:    39      Frequency (cm-1):     1419.9899     Intensity (km/mol):       36.8672
 Index  Atom      ---- Displacements (x/y/z) ----
     1     H       0.349854   0.117112  -0.079184
     2     C      -0.044292   0.036541   0.013109
     3     C      -0.106758  -0.059328   0.018424
     4     C       0.081478  -0.000762  -0.025292
     5     O      -0.026824   0.047630   0.018978
     6     H       0.448896   0.219563  -0.047516
     7     H       0.004551  -0.004595  -0.002619
     8     H       0.027209   0.032149   0.007135
     9     H      -0.017587   0.033719   0.003488
    10     C      -0.000828  -0.005194  -0.001441
    11     H       0.488630  -0.422319  -0.164579
    12     H      -0.010469  -0.351141  -0.072935
    13    Al      -0.000960  -0.000881   0.000024
    14     F      -0.000089  -0.000270  -0.000345
    15     F       0.000041  -0.000367   0.000232
    16     F      -0.000030  -0.000136  -0.000036
 
 Mode:    40      Frequency (cm-1):     1554.0584     Intensity (km/mol):      451.7145
 Index  Atom      ---- Displacements (x/y/z) ----
     1     H       0.291992   0.187798  -0.066381
     2     C       0.269204  -0.015124  -0.051893
     3     C      -0.322201  -0.075931   0.076617
     4     C       0.085410   0.252378   0.028880
     5     O      -0.000187  -0.116094  -0.025772
     6     H      -0.475592  -0.320905  -0.007393
     7     H      -0.005254   0.003267   0.006813
     8     H      -0.003970  -0.008840  -0.001171
     9     H       0.001003  -0.003477  -0.001402
    10     C       0.002091   0.001597  -0.011417
    11     H      -0.160905   0.392987   0.033258
    12     H      -0.048945  -0.287643  -0.045223
    13    Al      -0.003350  -0.006307  -0.000890
    14     F       0.001006   0.002431   0.002732
    15     F       0.000172   0.003217  -0.001385
    16     F       0.003251   0.000097  -0.000710
 
 Mode:    41      Frequency (cm-1):     1630.0138     Intensity (km/mol):      175.3590
 Index  Atom      ---- Displacements (x/y/z) ----
     1     H      -0.312874  -0.274369   0.037878
     2     C      -0.175342   0.030818   0.048446
     3     C       0.187935  -0.052424  -0.061871
     4     C      -0.044245   0.403120   0.099074
     5     O       0.034417  -0.235180  -0.062259
     6     H       0.246350   0.221997  -0.010284
     7     H      -0.006780   0.000793  -0.007160
     8     H       0.006145   0.005162  -0.006762
     9     H      -0.005770   0.014569  -0.007866
    10     C       0.001013  -0.001750   0.002471
    11     H       0.159161  -0.293223  -0.064730
    12     H      -0.291062  -0.451506   0.006821
    13    Al      -0.003977  -0.003608   0.000103
    14     F       0.001722   0.002578   0.002588
    15     F       0.000742   0.003406  -0.001746
    16     F       0.004427  -0.001535  -0.001468
 
 Mode:    42      Frequency (cm-1):     3013.8975     Intensity (km/mol):       11.9824
 Index  Atom      ---- Displacements (x/y/z) ----
     1     H       0.026899  -0.057816  -0.017274
     2     C      -0.000185  -0.000497  -0.000129
     3     C      -0.004678   0.003176   0.001852
     4     C       0.079014  -0.017317  -0.028621
     5     O      -0.000546  -0.000193   0.000126
     6     H      -0.001782   0.000904   0.000860
     7     H       0.000176   0.001086   0.000155
     8     H       0.000899  -0.000787   0.000131
     9     H      -0.001373  -0.000791  -0.000079
    10     C      -0.000005   0.000031   0.000061
    11     H       0.004998   0.004902  -0.000250
    12     H      -0.909277   0.223421   0.333881
    13    Al       0.000305   0.000147  -0.000040
    14     F      -0.000057  -0.000056  -0.000077
    15     F      -0.000024  -0.000089   0.000067
    16     F      -0.000071   0.000258   0.000073
 
 Mode:    43      Frequency (cm-1):     3067.0493     Intensity (km/mol):        1.1446
 Index  Atom      ---- Displacements (x/y/z) ----
     1     H       0.000601  -0.002115  -0.000602
     2     C      -0.001867   0.000397   0.000422
     3     C      -0.000015   0.000048   0.000081
     4     C       0.000245   0.000295   0.000013
     5     O      -0.000015  -0.000181  -0.000044
     6     H       0.006855  -0.019564  -0.003585
     7     H      -0.065654  -0.578889  -0.008328
     8     H      -0.473380   0.346699   0.043774
     9     H       0.509116   0.219301   0.077853
    10     C       0.002547   0.001097  -0.009705
    11     H       0.013155   0.014817   0.000338
    12     H      -0.001683   0.000314   0.000580
    13    Al       0.000029   0.000033   0.000024
    14     F      -0.000003  -0.000004  -0.000023
    15     F      -0.000005  -0.000012  -0.000001
    16     F      -0.000012  -0.000007  -0.000006
 
 Mode:    44      Frequency (cm-1):     3123.7780     Intensity (km/mol):        2.7415
 Index  Atom      ---- Displacements (x/y/z) ----
     1     H       0.052853  -0.155719  -0.041482
     2     C      -0.063038   0.010600   0.011282
     3     C       0.001132   0.012350   0.001859
     4     C      -0.001453   0.001106   0.000718
     5     O       0.000277  -0.000429  -0.000181
     6     H       0.228296  -0.643816  -0.126590
     7     H       0.001939   0.015560   0.000667
     8     H       0.012116  -0.009136  -0.000893
     9     H      -0.019716  -0.008457  -0.002928
    10     C       0.000562   0.000103   0.000700
    11     H       0.455593   0.524867   0.005686
    12     H       0.012247  -0.003859  -0.004871
    13    Al       0.000004  -0.000000   0.000003
    14     F      -0.000003  -0.000000  -0.000006
    15     F      -0.000003  -0.000001   0.000003
    16     F       0.000001  -0.000014  -0.000005
 
 Mode:    45      Frequency (cm-1):     3141.7474     Intensity (km/mol):        2.6775
 Index  Atom      ---- Displacements (x/y/z) ----
     1     H      -0.305646   0.894065   0.239261
     2     C      -0.012870   0.012339   0.004154
     3     C       0.028617  -0.077519  -0.021355
     4     C       0.006873   0.000487  -0.002073
     5     O      -0.000045   0.000342   0.000129
     6     H       0.062263  -0.175764  -0.034842
     7     H       0.000453   0.002348  -0.000109
     8     H       0.000801  -0.000625  -0.000037
     9     H      -0.001828  -0.000927  -0.000368
    10     C       0.000043  -0.000116   0.000220
    11     H       0.032562   0.036720   0.000625
    12     H      -0.058359   0.009625   0.020234
    13    Al       0.000058   0.000056   0.000002
    14     F      -0.000013  -0.000016  -0.000019
    15     F      -0.000007  -0.000024   0.000014
    16     F      -0.000030   0.000002   0.000006
 
 Mode:    46      Frequency (cm-1):     3224.2049     Intensity (km/mol):        0.0861
 Index  Atom      ---- Displacements (x/y/z) ----
     1     H       0.033217  -0.090923  -0.024978
     2     C       0.020419   0.096845   0.010614
     3     C      -0.003074   0.008602   0.002340
     4     C      -0.000512   0.000032   0.000136
     5     O       0.000116  -0.000258  -0.000082
     6     H       0.239619  -0.630446  -0.127922
     7     H       0.006284   0.050261   0.000139
     8     H      -0.037175   0.026105   0.004290
     9     H       0.003752   0.000293   0.000150
    10     C       0.002225  -0.006647  -0.000411
    11     H      -0.474519  -0.528093  -0.001593
    12     H       0.000067   0.000372   0.000271
    13    Al      -0.000003  -0.000021  -0.000003
    14     F      -0.000002   0.000006   0.000004
    15     F      -0.000002   0.000006  -0.000000
    16     F       0.000007   0.000006  -0.000001
 
 Mode:    47      Frequency (cm-1):     3248.7435     Intensity (km/mol):        0.4863
 Index  Atom      ---- Displacements (x/y/z) ----
     1     H       0.002129  -0.005384  -0.001491
     2     C       0.001286   0.006431   0.000779
     3     C      -0.000137   0.000445   0.000133
     4     C      -0.000010   0.000048   0.000004
     5     O       0.000006  -0.000036  -0.000013
     6     H       0.016212  -0.043591  -0.008242
     7     H      -0.082323  -0.618873  -0.002286
     8     H       0.613557  -0.439369  -0.064293
     9     H       0.127281   0.073951   0.023135
    10     C      -0.055386   0.082774   0.003572
    11     H      -0.031061  -0.034220  -0.000116
    12     H      -0.000034  -0.000013   0.000021
    13    Al      -0.000003   0.000002   0.000008
    14     F       0.000004   0.000001  -0.000006
    15     F       0.000001  -0.000000  -0.000002
    16     F       0.000002  -0.000002  -0.000002
 
 Mode:    48      Frequency (cm-1):     3256.2319     Intensity (km/mol):        0.2852
 Index  Atom      ---- Displacements (x/y/z) ----
     1     H      -0.000332   0.000764   0.000143
     2     C      -0.000674  -0.001534  -0.000086
     3     C       0.000101  -0.000090   0.000016
     4     C       0.000080   0.000041   0.000012
     5     O      -0.000012  -0.000017   0.000002
     6     H      -0.002819   0.007018   0.000986
     7     H       0.046638   0.508337   0.001059
     8     H       0.202877  -0.167253  -0.024009
     9     H       0.738702   0.314339   0.121932
    10     C      -0.083108  -0.055151  -0.008424
    11     H       0.010783   0.012370   0.000819
    12     H      -0.000284   0.000096   0.000024
    13    Al       0.000010   0.000005   0.000007
    14     F      -0.000005   0.000002  -0.000007
    15     F      -0.000003  -0.000002  -0.000001
    16     F      -0.000004  -0.000001  -0.000002

PES point character: Geometry corresponds to a stationary point on the PES with >1 negative frequencies.




 ============================
 Statistical Thermal Analysis  ***  ideal gas assumed  ***
 ============================
  
 Pressure:                  1.000000 atm.
 Temperature:             298.150000 K



 Moments of Inertia [amu*bohr^2] and principal axis
 ==================================================

         941.0583       3020.3506       3293.4496
 ------------------------------------------------
          -0.6073         -0.1608          0.7780
          -0.7550          0.4217         -0.5022
           0.2473          0.8924          0.3775


 The rotational contribution to the molecular entropy includes
 a term, dependent on the symmetry number sigma. The results 
 reported below were computed using sigma = 1, determined from
 the point group symmetry of the input geometry (NOSYM). 
 If this is not the correct symmetry, try symmetrizing the molecule before
 running the calculation (note: linear molecules should be aligned along one
 of the Cartesian axes).
 Contributions from frequencies below 20 1/cm are not included in vibrational sums.
 Their contributions, if any, are reported separately.


     Temp                                                        Transl      Rotat     Vibrat     Total
     ----                                                        ------      -----     ------     -----

     298.15   Entropy (cal/mol-K):                               41.025     30.616     41.315    112.956
              Nuclear Internal Energy (kcal/mol):                 0.889      0.889     69.751     71.528
              Constant Volume Heat Capacity (cal/mol-K):          2.981      2.981     34.025     39.987
          (c) Constant Volume Heat Capacity (cal/mol-K):          2.981      2.981     30.145     36.107

       Summary of energy terms
                                                   hartree              eV         kcal/mol           kJ/mol
                                      --------------------     -----------       ----------      -----------
      Energy from Engine:               -3.123332322031649        -84.9902         -1959.92         -8200.31
      Nuclear Internal Energy:           0.113987216337144          3.1017            71.53           299.27
  (c) Nuclear Internal Energy:           0.112035672180816          3.0486            70.30           294.15
      Internal Energy U:                -3.009345105694505        -81.8884         -1888.39         -7901.03
      pV/n = RT:                         0.000944186013486          0.0257             0.59             2.48
      Enthalpy H:                       -3.008400919681019        -81.8628         -1887.80         -7898.56
      -T*S:                             -0.053668860666567         -1.4604           -33.68          -140.91
  (c) -T*S:                             -0.051214968942610         -1.3936           -32.14          -134.46
      Gibbs free energy:                -3.062069780347587        -83.3232         -1921.48         -8039.46
 
 
 
  (c) The properties marked with this symbol have been corrected using 'low vibrational frequency free rotor
      interpolation corrections'. For those terms all positive frequencies are used (also ones below 20 1/cm),
      but the contribution to the partition function of small vibrational frequencies is modified as described
      in the following paper:
      S. Grimme, 'Supramolecular Binding Thermodynamics by Dispersion-Corrected Density Functional Theory'
      (Chem. Eur. J. 2012, 18, 9955-9964)
      Configuration: Dampener Frequency          :   100.000 1/cm
                     Dampener Alpha              :     4.000
                     Averaging Moment of Inertia : 1.000E-44 kg m2

--------------
Atomic charges
--------------
  Index   Atom    Charge
      1      H   -0.2046
      2      C    0.5066
      3      C    0.1662
      4      C    0.7457
      5      O   -0.5890
      6      H   -0.1663
      7      H   -0.1482
      8      H   -0.1516
      9      H   -0.1256
     10      C    0.5382
     11      H   -0.1987
     12      H   -0.1946
     13     Al    1.7216
     14      F   -0.6305
     15      F   -0.6276
     16      F   -0.6415


Dipole moment vector    (Debye):    -5.29614916   -8.35326588    0.99886127
              magnitude (Debye):     9.94102463


ERROR: Transition state search failed. (Converged, but did not find a transition state.)


AMS application finished. Exiting.
NORMAL TERMINATION
     Total cpu time:   45006.55
  Total system time:     326.93
 Total elapsed time:   91110.60
 WARNING: total elapsed time is much higher than the (CPU+system) time. 
 Make sure the machine is not oversubscribed and has enough memory, SCM_TMPDIR p
 oints to a fast file system, and the network is fast enough.
