

 Parallel Execution: Process Information
 ==============================================================================
 Rank   Node Name                              NodeID   MyNodeRank  NodeMaster
    0   node115                                   0          0          0
    1   node115                                   0          1         -1
    2   node115                                   0          2         -1
    3   node115                                   0          3         -1
 ==============================================================================


May use up to 122928MB of RAM as shared memory on node 0

 *******************************************************************************
 *                                                                             *
 *  --------------------------------                                           *
 *   Amsterdam Modeling Suite (AMS)              2021.102                      *
 *  --------------------------------                                           *
 *                                               r95042 2021-06-07             *
 *                                                                             *
 *                                                                             *
 *                              =================                              *
 *                              |               |                              *
 *                              |     A M S     |                              *
 *                              |               |                              *
 *                              =================                              *
 *                                                                             *
 *                                                                             *
 *   Online information and documentation:  https://www.scm.com/support/       *
 *   E-mail:  support@scm.com   info@scm.com                                   *
 *                                                                             *
 *   Scientific publications using AMS results must be properly referenced     *
 *   See the User Manuals (or the web site) for recommended citations          *
 *   The terms and conditions of the End User License Agreement apply to       *
 *   the use of AMS, https://www.scm.com/license-terms/                        *
 *                                                                             *
 **********************  x86_64_linux_intel / intelmpi  ************************
 
 Licensed to: VU/FEW (+ SARA) / ALGEMEEN / Amsterdam / THE NETHERLANDS
 SCM User ID: u7668
  
 AMS 2021.102  RunTime: Jan23-2022 22:00:18  ShM Nodes: 1  Procs: 4

 AMS jobname: 39.achiral_catalyst.H_H_TiCl4.P2
 AMS jobid  : 1824407280

 Start   directory: /scistor/tc/yhk800/MasterProject/calculations/achiral_catalyst_H_H_TiCl4/39.achiral_catalyst.H_H_TiCl4.P2/
 Results directory: /scistor/tc/yhk800/MasterProject/calculations/achiral_catalyst_H_H_TiCl4/39.achiral_catalyst.H_H_TiCl4.P2/
 Scratch directory: /scratch/3981/amstmp_39.achiral_catalyst.H_H_TiCl4.P2_kid0.1824407280/


 Communication costs MPI_COMM_WORLD:      1.674 usec per message,   0.0024 usec per 8-byte item
 Communication costs for intra-node:     -0.044 usec per message,   0.0042 usec per 8-byte item

 RNG seed: -186039249 -100261542 1656850956 1851469522 1544300546 405688429 -1477110243 1556003510



                      ************************************************************************
                      *  ADF 2021.102  RunTime: Jan23-2022 22:00:19  ShM Nodes: 1  Procs: 4  *
                      ************************************************************************
  
       ***************************
       *  GEOMETRY OPTIMIZATION  *
       ***************************

Optimization Method                    Quasi Newton
Optimization Coordinates               Delocalized Coordinates
Optimize lattice                       F
 
 ------------------------------------------------------
 Convergence criteria (Hartree,Angstrom)
 ------------------------------------------------------
 Maximum gradient               0.001000000000
 Maximum rms gradient           0.000666666667
 Maximum step allowed           0.010000000000
 Maximum rms step allowed       0.006666666667
 Maximum energy change allowe   0.000180000000
 Maximum stress energy allowe   0.000500000000
 
Initial model Hessian                  Automatic Hessian
 
------------------------------------
Quasi-Newton Optimizer Parameters
------------------------------------
Hessian Update Method                  BFGS
Maximum number of steps                  250
First GDIIS cycle                          0
Maximum GDIIS vectors                      0
Trust radius (bohr)                        0.200000
Trust radius varies                        T
Constraints converged at all steps         T
Use projector                              T
 
 Rigid motions settings for: old optimizer
 Atomic rotations (x,y,z):     T T T
 Atomic translations (x,y,z):  T T T
 Tolerance:                   1.000000000000000E-006
 
--------
Geometry
--------
Formula: C4H8Cl4OTi
Atoms
  Index Symbol   x (angstrom)   y (angstrom)   z (angstrom)
      1      H     0.83345051    -1.35209109     1.20167740
      2      C    -0.83092072     0.03538951     0.93442801
      3      C     0.35139657    -0.78131674     0.40158875
      4      C     1.39689343     0.07225735    -0.26739819
      5      O     1.30011208     1.25282167    -0.44784372
      6      H    -1.19392452     0.69150371     0.13740680
      7      H     0.00939092    -1.50634328    -0.34451216
      8      H    -0.05768346     0.24518214     2.94899716
      9      C    -0.44138171     0.87842746     2.14736270
     10      H     0.32560687     1.60312788     1.87585802
     11      H    -1.31355949     1.41759590     2.51749654
     12      H    -1.62209815    -0.63358328     1.20166141
     13      H     2.25449427    -0.48063876    -0.58946446
     14     Ti     1.07324112     6.60954467    -1.30738358
     15     Cl     1.12240586     4.51122066    -0.93902243
     16     Cl     2.43712093     7.59272853     0.00191094
     17     Cl    -0.89697184     7.34512892    -0.96351223
     18     Cl     1.63040951     6.98910058    -3.32891059
 
Total System Charge             0.00000
 
 
----------------
ADF Engine Input
----------------
 
 NumericalQuality VeryGood
 SCF
 Converge 1.0e-6
 Iterations 99
 End
 SYMMETRY NOSYM
 XC
 GGA OLYP
 End
 basis
 core None
 type TZ2P
 End
 

 Title: *** (NO TITLE) ***

Bad geometry: added dihedral    13    4   15    9
 Using automatic Hessian for delocalized coordinates.
 *** GOStep1 ***

 Energy gradients wrt nuclear displacements
 ==========================================

     Atom      Cartesian (a.u./angstrom)
                 X         Y         Z
 ----------------------------------------
     1 H    -0.003829  0.006768 -0.001054
     2 C    -0.028416 -0.011518  0.002253
     3 C     0.019056 -0.018350 -0.001661
     4 C     0.036107  0.022005 -0.021076
     5 O    -0.004840 -0.041131  0.013548
     6 H     0.002792  0.001317  0.000761
     7 H    -0.003012  0.008266  0.004131
     8 H    -0.000790  0.001247 -0.006629
     9 C     0.005308 -0.000638  0.005179
    10 H    -0.000361 -0.003315 -0.004149
    11 H     0.002130 -0.004468 -0.005901
    12 H     0.025676  0.019665 -0.006143
    13 H    -0.050010  0.024354  0.020033
    14 Ti   -0.000397  0.007516 -0.001251
    15 Cl   -0.000587  0.028724 -0.005026
    16 Cl   -0.026110 -0.018908 -0.025056
    17 Cl    0.037909 -0.014220 -0.006631
    18 Cl   -0.010627 -0.007315  0.038675
 ----------------------------------------
 Mulliken charges used for AMS results%charges...
 
----------------------------------------------------------------------
Geometry Convergence after Step   1       (Hartree/Angstrom,Angstrom)
----------------------------------------------------------------------
current energy                               -3.32537843 Hartree
energy change                      -3.32537843     0.00018000    F
constrained gradient max            0.05001377     0.00100000    F
constrained gradient rms            0.01755125     0.00066667    F
gradient max                        0.05001377
gradient rms                        0.01755125
cart. step max                      0.06560058     0.01000000    F
cart. step rms                      0.02632091     0.00666667    F
 
 
--------
Geometry
--------
Formula: C4H8Cl4OTi
Atoms
  Index Symbol   x (angstrom)   y (angstrom)   z (angstrom)
      1      H     0.84406376    -1.35682837     1.17337188
      2      C    -0.82738914     0.03751999     0.95636791
      3      C     0.35065305    -0.76910082     0.38817169
      4      C     1.41869204     0.04635532    -0.31069928
      5      O     1.35804480     1.24380622    -0.51344430
      6      H    -1.20502688     0.69227232     0.16452751
      7      H    -0.00129522    -1.49906902    -0.35433496
      8      H    -0.08240184     0.25834812     2.99078040
      9      C    -0.46409663     0.88654431     2.17994673
     10      H     0.30025961     1.62091228     1.92438248
     11      H    -1.34172332     1.42156529     2.55263934
     12      H    -1.62685893    -0.65059359     1.22055740
     13      H     2.28704408    -0.53921745    -0.65064304
     14     Ti     1.07372699     6.61845443    -1.30806079
     15     Cl     1.12954457     4.50684343    -0.91985091
     16     Cl     2.42717057     7.62940402     0.02416696
     17     Cl    -0.92378701     7.35331621    -0.99342116
     18     Cl     1.66136167     6.98952316    -3.34411749
 
Total System Charge             0.00000
 
 *** GOStep2 ***

 Energy gradients wrt nuclear displacements
 ==========================================

     Atom      Cartesian (a.u./angstrom)
                 X         Y         Z
 ----------------------------------------
     1 H    -0.002579  0.004392  0.000226
     2 C    -0.013003 -0.005711  0.002197
     3 C     0.006809 -0.012133 -0.002961
     4 C     0.018759 -0.016563 -0.007118
     5 O    -0.005706  0.013894  0.002334
     6 H     0.003311  0.000374  0.000342
     7 H    -0.001091  0.004198  0.001035
     8 H    -0.000302  0.000188 -0.003092
     9 C     0.000542  0.004004  0.004312
    10 H    -0.000914 -0.002857 -0.002468
    11 H     0.000948 -0.000987 -0.001192
    12 H     0.007856  0.007226 -0.000587
    13 H    -0.014883  0.008157  0.006359
    14 Ti   -0.000350  0.005326 -0.000873
    15 Cl   -0.000317  0.015403 -0.002952
    16 Cl   -0.015818 -0.011919 -0.015593
    17 Cl    0.023583 -0.008651 -0.003730
    18 Cl   -0.006846 -0.004341  0.023760
 ----------------------------------------
 Mulliken charges used for AMS results%charges...

 dE(predicted):    -0.46857E-02, dE(actual):    -0.58624E-02, Trust radius:    0.400000, all in a.u.
 
----------------------------------------------------------------------
Geometry Convergence after Step   2       (Hartree/Angstrom,Angstrom)
----------------------------------------------------------------------
current energy                               -3.33124082 Hartree
energy change                      -0.00586239     0.00018000    F
constrained gradient max            0.02375500     0.00100000    F
constrained gradient rms            0.00867678     0.00066667    F
gradient max                        0.02375500
gradient rms                        0.00867678
cart. step max                      0.08326256     0.01000000    F
cart. step rms                      0.03292188     0.00666667    F
 
 
--------
Geometry
--------
Formula: C4H8Cl4OTi
Atoms
  Index Symbol   x (angstrom)   y (angstrom)   z (angstrom)
      1      H     0.84362222    -1.36124348     1.14351487
      2      C    -0.82278119     0.05768731     0.97314554
      3      C     0.33903702    -0.75026378     0.37845281
      4      C     1.42077028     0.02562917    -0.34745303
      5      O     1.40515782     1.21659684    -0.57827828
      6      H    -1.21813320     0.72061146     0.19534201
      7      H    -0.02981317    -1.48289173    -0.35838980
      8      H    -0.08065271     0.24977162     3.02157995
      9      C    -0.45812092     0.88687716     2.21196872
     10      H     0.30693932     1.63151777     1.98135917
     11      H    -1.33628556     1.41757085     2.59536740
     12      H    -1.62908657    -0.64465463     1.22941344
     13      H     2.27818375    -0.59984050    -0.71234609
     14     Ti     1.07246221     6.62227892    -1.31019688
     15     Cl     1.16328120     4.49628642    -0.90038537
     16     Cl     2.36187604     7.68770735     0.08126228
     17     Cl    -0.97593531     7.31837924    -1.07668371
     18     Cl     1.73746095     6.99803583    -3.34733267
 
Total System Charge             0.00000
 
 *** GOStep3 ***

 Energy gradients wrt nuclear displacements
 ==========================================

     Atom      Cartesian (a.u./angstrom)
                 X         Y         Z
 ----------------------------------------
     1 H     0.000217  0.000639  0.000397
     2 C    -0.002159  0.001281 -0.000182
     3 C    -0.001029 -0.002746 -0.001796
     4 C     0.001992 -0.003673  0.002800
     5 O    -0.000979  0.007115 -0.001018
     6 H     0.001071  0.000060 -0.000283
     7 H    -0.000323  0.000347 -0.000421
     8 H     0.000262 -0.000246  0.000642
     9 C     0.000300  0.003374  0.001097
    10 H    -0.000384 -0.000694 -0.000412
    11 H    -0.000045  0.000376  0.000677
    12 H    -0.002438 -0.002190  0.001053
    13 H     0.003248  0.000383 -0.003119
    14 Ti   -0.000188  0.002676 -0.000322
    15 Cl   -0.000082  0.001451 -0.000513
    16 Cl   -0.004879 -0.004042 -0.005323
    17 Cl    0.007848 -0.002695 -0.000907
    18 Cl   -0.002431 -0.001420  0.007630
 ----------------------------------------
 Mulliken charges used for AMS results%charges...

 dE(predicted):    -0.18069E-02, dE(actual):    -0.21298E-02, Trust radius:    0.400000, all in a.u.
 
----------------------------------------------------------------------
Geometry Convergence after Step   3       (Hartree/Angstrom,Angstrom)
----------------------------------------------------------------------
current energy                               -3.33337067 Hartree
energy change                      -0.00212985     0.00018000    F
constrained gradient max            0.00783679     0.00100000    F
constrained gradient rms            0.00257909     0.00066667    F
gradient max                        0.00783679
gradient rms                        0.00257909
cart. step max                      0.02955932     0.01000000    F
cart. step rms                      0.00956784     0.00666667    F
 
 
--------
Geometry
--------
Formula: C4H8Cl4OTi
Atoms
  Index Symbol   x (angstrom)   y (angstrom)   z (angstrom)
      1      H     0.84806675    -1.35186690     1.14853632
      2      C    -0.82102362     0.06206500     0.96874461
      3      C     0.33936354    -0.74685169     0.38058310
      4      C     1.41619839     0.01715282    -0.36158290
      5      O     1.41510817     1.20514419    -0.60281948
      6      H    -1.22040077     0.72317655     0.19108571
      7      H    -0.02831876    -1.49140232    -0.34566233
      8      H    -0.08927046     0.24746008     3.02013745
      9      C    -0.46221890     0.88660575     2.20997976
     10      H     0.30302069     1.63520978     1.98959029
     11      H    -1.34384798     1.41425358     2.59000200
     12      H    -1.62687392    -0.64201858     1.22272280
     13      H     2.28736266    -0.61735958    -0.68278677
     14     Ti     1.07297756     6.62679320    -1.30929991
     15     Cl     1.17119643     4.49295363    -0.90518881
     16     Cl     2.37916962     7.69461563     0.07957975
     17     Cl    -0.98305582     7.32233074    -1.05293651
     18     Cl     1.72052860     7.01179395    -3.36034471
 
Total System Charge             0.00000
 
 *** GOStep4 ***

 Energy gradients wrt nuclear displacements
 ==========================================

     Atom      Cartesian (a.u./angstrom)
                 X         Y         Z
 ----------------------------------------
     1 H    -0.000093 -0.000867  0.000684
     2 C     0.000869  0.002451 -0.000437
     3 C     0.000164 -0.000370  0.002539
     4 C    -0.007548 -0.000984 -0.006489
     5 O     0.002090  0.005731  0.001929
     6 H    -0.000013 -0.000057 -0.000297
     7 H     0.000462  0.000100 -0.000627
     8 H     0.000202 -0.000206  0.000812
     9 C     0.000270  0.001302 -0.000233
    10 H    -0.000088 -0.000010  0.000009
    11 H    -0.000249  0.000240  0.000455
    12 H    -0.002226 -0.002494  0.000715
    13 H     0.005899 -0.000931  0.000446
    14 Ti   -0.000076  0.001417 -0.000167
    15 Cl    0.000123 -0.003273  0.000408
    16 Cl   -0.001260 -0.001027 -0.001369
    17 Cl    0.002062 -0.000679 -0.000285
    18 Cl   -0.000587 -0.000342  0.001906
 ----------------------------------------
 Mulliken charges used for AMS results%charges...

 dE(predicted):    -0.22902E-03, dE(actual):    -0.20654E-03, Trust radius:    0.400000, all in a.u.
 
----------------------------------------------------------------------
Geometry Convergence after Step   4       (Hartree/Angstrom,Angstrom)
----------------------------------------------------------------------
current energy                               -3.33357721 Hartree
energy change                      -0.00020654     0.00018000    F
constrained gradient max            0.00754587     0.00100000    F
constrained gradient rms            0.00207848     0.00066667    F
gradient max                        0.00754587
gradient rms                        0.00207848
cart. step max                      0.03594264     0.01000000    F
cart. step rms                      0.01288406     0.00666667    F
 
 
--------
Geometry
--------
Formula: C4H8Cl4OTi
Atoms
  Index Symbol   x (angstrom)   y (angstrom)   z (angstrom)
      1      H     0.84046185    -1.35157217     1.16138365
      2      C    -0.81593327     0.07203982     0.95985352
      3      C     0.34403897    -0.74273593     0.38840964
      4      C     1.43389655     0.01087704    -0.33931618
      5      O     1.43459451     1.19061270    -0.61499523
      6      H    -1.20528477     0.73790987     0.18103072
      7      H    -0.01825796    -1.48865313    -0.33968903
      8      H    -0.10730828     0.24160581     3.01885108
      9      C    -0.46820546     0.88667998     2.20844893
     10      H     0.30115649     1.63675214     2.00509389
     11      H    -1.35348748     1.41385693     2.58023106
     12      H    -1.62862940    -0.62653737     1.20064233
     13      H     2.27822539    -0.64730837    -0.68235634
     14     Ti     1.06951930     6.62781163    -1.30934527
     15     Cl     1.17823947     4.48649542    -0.91557757
     16     Cl     2.39942539     7.69554375     0.07084238
     17     Cl    -0.99190157     7.32092304    -1.01699387
     18     Cl     1.68743245     7.02575465    -3.37617336
 
Total System Charge             0.00000
 
 *** GOStep5 ***

 Energy gradients wrt nuclear displacements
 ==========================================

     Atom      Cartesian (a.u./angstrom)
                 X         Y         Z
 ----------------------------------------
     1 H     0.000743 -0.000758 -0.000330
     2 C     0.002367  0.001918 -0.000980
     3 C    -0.001691  0.000405 -0.001366
     4 C    -0.001401  0.004926  0.008879
     5 O    -0.000207  0.002824 -0.002926
     6 H    -0.001037 -0.000074  0.000039
     7 H    -0.000465 -0.001123  0.000287
     8 H     0.000086  0.000024  0.000489
     9 C     0.000653 -0.000722 -0.001356
    10 H     0.000086  0.000636  0.000450
    11 H    -0.000264  0.000003 -0.000033
    12 H    -0.000832 -0.001375 -0.000092
    13 H     0.001694 -0.002914 -0.003570
    14 Ti    0.000032  0.000105 -0.000048
    15 Cl    0.000350 -0.007185  0.001178
    16 Cl    0.001985  0.001625  0.002072
    17 Cl   -0.003034  0.001068  0.000437
    18 Cl    0.000934  0.000615 -0.003129
 ----------------------------------------
 Mulliken charges used for AMS results%charges...

 dE(predicted):    -0.19512E-03, dE(actual):    -0.46847E-04, Trust radius:    0.400000, all in a.u.
 
----------------------------------------------------------------------
Geometry Convergence after Step   5       (Hartree/Angstrom,Angstrom)
----------------------------------------------------------------------
current energy                               -3.33362406 Hartree
energy change                      -0.00004685     0.00018000    T
constrained gradient max            0.00888073     0.00100000    F
constrained gradient rms            0.00218015     0.00066667    F
gradient max                        0.00888073
gradient rms                        0.00218015
cart. step max                      0.01090317     0.01000000    F
cart. step rms                      0.00391039     0.00666667    T
 
 
--------
Geometry
--------
Formula: C4H8Cl4OTi
Atoms
  Index Symbol   x (angstrom)   y (angstrom)   z (angstrom)
      1      H     0.84243631    -1.34777583     1.16303846
      2      C    -0.81747248     0.06979762     0.96018522
      3      C     0.34360571    -0.74498869     0.38758244
      4      C     1.42930975     0.00977882    -0.34652066
      5      O     1.42605371     1.19102582    -0.61406557
      6      H    -1.20445915     0.73439990     0.17939084
      7      H    -0.01938542    -1.49251351    -0.33776884
      8      H    -0.10531182     0.24564757     3.01662459
      9      C    -0.46737938     0.88886352     2.20559384
     10      H     0.30319540     1.63527286     1.99555415
     11      H    -1.35054594     1.41914583     2.57743753
     12      H    -1.63008678    -0.62598504     1.20461013
     13      H     2.28479580    -0.63827643    -0.67145317
     14     Ti     1.06953385     6.62594002    -1.30787081
     15     Cl     1.17678768     4.48726636    -0.91928449
     16     Cl     2.39792684     7.68761985     0.07150313
     17     Cl    -0.98738734     7.31808072    -1.01436640
     18     Cl     1.68636544     7.02675644    -3.36985003
 
Total System Charge             0.00000
 
 *** GOStep6 ***

 Energy gradients wrt nuclear displacements
 ==========================================

     Atom      Cartesian (a.u./angstrom)
                 X         Y         Z
 ----------------------------------------
     1 H     0.000074 -0.000204 -0.000009
     2 C     0.000719  0.000697 -0.000054
     3 C    -0.000244  0.000242 -0.000216
     4 C    -0.001366  0.002513  0.000790
     5 O     0.000054  0.001994 -0.000050
     6 H    -0.000299 -0.000149 -0.000003
     7 H     0.000003 -0.000149  0.000013
     8 H     0.000035  0.000025  0.000107
     9 C     0.000180 -0.000048 -0.000554
    10 H    -0.000090  0.000110  0.000035
    11 H    -0.000115 -0.000017  0.000031
    12 H    -0.000270 -0.000380  0.000146
    13 H     0.001062 -0.000860 -0.000746
    14 Ti    0.000003  0.000419 -0.000092
    15 Cl    0.000221 -0.004810  0.000738
    16 Cl    0.000360  0.000301  0.000372
    17 Cl   -0.000508  0.000199  0.000078
    18 Cl    0.000182  0.000118 -0.000588
 ----------------------------------------
 Mulliken charges used for AMS results%charges...

 dE(predicted):    -0.92396E-04, dE(actual):    -0.10588E-03, Trust radius:    0.400000, all in a.u.
 
----------------------------------------------------------------------
Geometry Convergence after Step   6       (Hartree/Angstrom,Angstrom)
----------------------------------------------------------------------
current energy                               -3.33372994 Hartree
energy change                      -0.00010588     0.00018000    T
constrained gradient max            0.00480886     0.00100000    F
constrained gradient rms            0.00088358     0.00066667    F
gradient max                        0.00480886
gradient rms                        0.00088358
cart. step max                      0.01160254     0.01000000    F
cart. step rms                      0.00481180     0.00666667    T
 
 
--------
Geometry
--------
Formula: C4H8Cl4OTi
Atoms
  Index Symbol   x (angstrom)   y (angstrom)   z (angstrom)
      1      H     0.84080816    -1.34499672     1.16941155
      2      C    -0.81697049     0.07267029     0.95755233
      3      C     0.34369066    -0.74624728     0.39002679
      4      C     1.43027733     0.00424716    -0.34719793
      5      O     1.42595538     1.18407544    -0.62208663
      6      H    -1.19770596     0.73811336     0.17446201
      7      H    -0.01930644    -1.49656285    -0.33223599
      8      H    -0.10913677     0.24840987     3.01504349
      9      C    -0.46698732     0.89212596     2.20272830
     10      H     0.30731327     1.63470953     1.99299423
     11      H    -1.34862006     1.42659587     2.57186158
     12      H    -1.63297687    -0.61861924     1.20037079
     13      H     2.28772934    -0.64376539    -0.66115679
     14     Ti     1.06764931     6.62471894    -1.30625581
     15     Cl     1.17947813     4.48523380    -0.92867007
     16     Cl     2.39856597     7.68109510     0.07387101
     17     Cl    -0.98897052     7.31173044    -1.00276385
     18     Cl     1.67718906     7.03652156    -3.36761465
 
Total System Charge             0.00000
 
 *** GOStep7 ***

 Energy gradients wrt nuclear displacements
 ==========================================

     Atom      Cartesian (a.u./angstrom)
                 X         Y         Z
 ----------------------------------------
     1 H    -0.000123  0.000002  0.000051
     2 C     0.000135 -0.000036  0.000223
     3 C     0.000144  0.000170 -0.000036
     4 C    -0.000461  0.000906 -0.000798
     5 O    -0.000022  0.002633  0.000271
     6 H    -0.000102 -0.000129 -0.000028
     7 H     0.000085  0.000095  0.000012
     8 H     0.000026  0.000068 -0.000080
     9 C     0.000058 -0.000003 -0.000331
    10 H    -0.000112 -0.000013 -0.000045
    11 H    -0.000030 -0.000075  0.000005
    12 H     0.000188  0.000190  0.000075
    13 H    -0.000033 -0.000104  0.000195
    14 Ti    0.000020  0.000227 -0.000081
    15 Cl    0.000189 -0.004185  0.000631
    16 Cl    0.000149  0.000116  0.000149
    17 Cl   -0.000183  0.000085  0.000028
    18 Cl    0.000072  0.000055 -0.000239
 ----------------------------------------
 Mulliken charges used for AMS results%charges...

 dE(predicted):    -0.15875E-04, dE(actual):    -0.27309E-04, Trust radius:    0.400000, all in a.u.
 
----------------------------------------------------------------------
Geometry Convergence after Step   7       (Hartree/Angstrom,Angstrom)
----------------------------------------------------------------------
current energy                               -3.33375725 Hartree
energy change                      -0.00002731     0.00018000    T
constrained gradient max            0.00418382     0.00100000    F
constrained gradient rms            0.00071113     0.00066667    F
gradient max                        0.00418382
gradient rms                        0.00071113
cart. step max                      0.04456932     0.01000000    F
cart. step rms                      0.02072312     0.00666667    F
 
 
--------
Geometry
--------
Formula: C4H8Cl4OTi
Atoms
  Index Symbol   x (angstrom)   y (angstrom)   z (angstrom)
      1      H     0.83279788    -1.33571296     1.19472215
      2      C    -0.81339323     0.08777449     0.94719755
      3      C     0.34321845    -0.75079314     0.40089138
      4      C     1.43579522    -0.02137020    -0.34894133
      5      O     1.42950339     1.15000244    -0.65996669
      6      H    -1.16840453     0.75701440     0.15542472
      7      H    -0.02171455    -1.51210813    -0.30851793
      8      H    -0.12666590     0.26144648     3.01117726
      9      C    -0.46411166     0.90760355     2.19247276
     10      H     0.32687613     1.63371045     1.98682944
     11      H    -1.33917000     1.46057615     2.54896106
     12      H    -1.64469761    -0.58540745     1.18192743
     13      H     2.29709951    -0.67362687    -0.62665499
     14     Ti     1.05897787     6.61921784    -1.29925516
     15     Cl     1.19489876     4.47539239    -0.96978389
     16     Cl     2.39445026     7.65685090     0.08985204
     17     Cl    -1.00060598     7.27839461    -0.95931811
     18     Cl     1.64312816     7.08109088    -3.35667732
 
Total System Charge             0.00000
 
 *** GOStep8 ***

 Energy gradients wrt nuclear displacements
 ==========================================

     Atom      Cartesian (a.u./angstrom)
                 X         Y         Z
 ----------------------------------------
     1 H    -0.000441  0.000453  0.000121
     2 C    -0.001153 -0.001830  0.000747
     3 C     0.000719  0.000168  0.000276
     4 C     0.002510 -0.002699 -0.003534
     5 O    -0.000387  0.003707  0.000609
     6 H     0.000376  0.000017 -0.000084
     7 H     0.000245  0.000509 -0.000005
     8 H     0.000057  0.000141 -0.000468
     9 C    -0.000302  0.000136  0.000236
    10 H    -0.000092 -0.000263 -0.000222
    11 H     0.000161 -0.000230 -0.000024
    12 H     0.001201  0.001439 -0.000164
    13 H    -0.003078  0.001866  0.002081
    14 Ti    0.000102 -0.000660 -0.000012
    15 Cl    0.000085 -0.002616  0.000390
    16 Cl   -0.000043 -0.000085 -0.000072
    17 Cl    0.000088 -0.000027 -0.000022
    18 Cl   -0.000050 -0.000025  0.000146
 ----------------------------------------
 Mulliken charges used for AMS results%charges...

 dE(predicted):    -0.53442E-04, dE(actual):    -0.77473E-04, Trust radius:    0.400000, all in a.u.
 
----------------------------------------------------------------------
Geometry Convergence after Step   8       (Hartree/Angstrom,Angstrom)
----------------------------------------------------------------------
current energy                               -3.33383472 Hartree
energy change                      -0.00007747     0.00018000    T
constrained gradient max            0.00370874     0.00100000    F
constrained gradient rms            0.00118647     0.00066667    F
gradient max                        0.00370874
gradient rms                        0.00118647
cart. step max                      0.05887152     0.01000000    F
cart. step rms                      0.02629461     0.00666667    F
 
 
--------
Geometry
--------
Formula: C4H8Cl4OTi
Atoms
  Index Symbol   x (angstrom)   y (angstrom)   z (angstrom)
      1      H     0.82133052    -1.32709480     1.22185394
      2      C    -0.80752260     0.10956263     0.93731884
      3      C     0.33969641    -0.75589761     0.41372209
      4      C     1.43991879    -0.05562551    -0.35366486
      5      O     1.43474771     1.10324269    -0.71027040
      6      H    -1.13385430     0.78235230     0.13637648
      7      H    -0.03251413    -1.52892591    -0.27915641
      8      H    -0.14415269     0.28114518     3.00900075
      9      C    -0.45512474     0.92971591     2.18186340
     10      H     0.35720890     1.63362165     1.98086464
     11      H    -1.32013212     1.50740788     2.52292197
     12      H    -1.65745862    -0.54168516     1.16430221
     13      H     2.30239656    -0.71648041    -0.59704539
     14     Ti     1.04751374     6.61097981    -1.29003443
     15     Cl     1.22117293     4.46294115    -1.02140920
     16     Cl     2.36972496     7.63132779     0.12455890
     17     Cl    -1.02251810     7.22350584    -0.92561756
     18     Cl     1.61754897     7.13996240    -3.33524459
 
Total System Charge             0.00000
 
 *** GOStep9 ***

 Energy gradients wrt nuclear displacements
 ==========================================

     Atom      Cartesian (a.u./angstrom)
                 X         Y         Z
 ----------------------------------------
     1 H    -0.000476  0.000608  0.000121
     2 C    -0.001760 -0.002618  0.000789
     3 C     0.000687  0.000152  0.000598
     4 C     0.004399 -0.005048 -0.004026
     5 O    -0.000643  0.004868  0.000097
     6 H     0.000679  0.000183 -0.000109
     7 H     0.000281  0.000568 -0.000035
     8 H     0.000114  0.000099 -0.000578
     9 C    -0.000534  0.000315  0.000731
    10 H     0.000006 -0.000374 -0.000352
    11 H     0.000206 -0.000346 -0.000026
    12 H     0.001537  0.001867 -0.000330
    13 H    -0.004620  0.002901  0.002706
    14 Ti    0.000208 -0.001564  0.000045
    15 Cl   -0.000041 -0.001453  0.000247
    16 Cl    0.000021 -0.000072 -0.000026
    17 Cl   -0.000043 -0.000039  0.000023
    18 Cl   -0.000017 -0.000048  0.000126
 ----------------------------------------
 Mulliken charges used for AMS results%charges...

 dE(predicted):    -0.49621E-04, dE(actual):    -0.73714E-04, Trust radius:    0.400000, all in a.u.
 
----------------------------------------------------------------------
Geometry Convergence after Step   9       (Hartree/Angstrom,Angstrom)
----------------------------------------------------------------------
current energy                               -3.33390843 Hartree
energy change                      -0.00007371     0.00018000    T
constrained gradient max            0.00504825     0.00100000    F
constrained gradient rms            0.00165297     0.00066667    F
gradient max                        0.00504825
gradient rms                        0.00165297
cart. step max                      0.11187257     0.01000000    F
cart. step rms                      0.04724021     0.00666667    F
 
 
--------
Geometry
--------
Formula: C4H8Cl4OTi
Atoms
  Index Symbol   x (angstrom)   y (angstrom)   z (angstrom)
      1      H     0.79987227    -1.31504667     1.26224328
      2      C    -0.79573862     0.14956044     0.92381973
      3      C     0.32991198    -0.76331367     0.43435170
      4      C     1.44237269    -0.11569218    -0.36322364
      5      O     1.44307255     1.01834399    -0.79320097
      6      H    -1.07941853     0.82403655     0.10842263
      7      H    -0.06052239    -1.55251652    -0.23018310
      8      H    -0.16687961     0.32340080     3.00622505
      9      C    -0.43223014     0.97276176     2.16385042
     10      H     0.41581768     1.63565423     1.96817579
     11      H    -1.27656179     1.59444872     2.47823671
     12      H    -1.67488840    -0.46503034     1.14293602
     13      H     2.30341606    -0.79358620    -0.56056349
     14     Ti     1.02697402     6.59282182    -1.27300415
     15     Cl     1.27513703     4.44264094    -1.11175461
     16     Cl     2.30397039     7.58544802     0.20224726
     17     Cl    -1.06641593     7.11163327    -0.89348054
     18     Cl     1.59009293     7.24449086    -3.28475772
 
Total System Charge             0.00000
 
 *** GOStep10 ***

 Energy gradients wrt nuclear displacements
 ==========================================

     Atom      Cartesian (a.u./angstrom)
                 X         Y         Z
 ----------------------------------------
     1 H    -0.000262  0.000524  0.000032
     2 C    -0.001768 -0.002437  0.000315
     3 C     0.000140  0.000083  0.001080
     4 C     0.005132 -0.005613 -0.002714
     5 O    -0.000916  0.005442 -0.001070
     6 H     0.000873  0.000369 -0.000036
     7 H     0.000194  0.000303 -0.000079
     8 H     0.000159 -0.000154 -0.000515
     9 C    -0.000589  0.000685  0.001393
    10 H     0.000230 -0.000406 -0.000508
    11 H     0.000075 -0.000413 -0.000065
    12 H     0.001139  0.001566 -0.000465
    13 H    -0.004512  0.002965  0.002229
    14 Ti    0.000485 -0.002658 -0.000028
    15 Cl   -0.000250 -0.000238  0.000222
    16 Cl    0.000187  0.000048  0.000195
    17 Cl   -0.000406 -0.000040  0.000139
    18 Cl    0.000089 -0.000026 -0.000123
 ----------------------------------------
 Mulliken charges used for AMS results%charges...

 dE(predicted):    -0.82849E-04, dE(actual):    -0.99093E-04, Trust radius:    0.400000, all in a.u.
 
----------------------------------------------------------------------
Geometry Convergence after Step  10       (Hartree/Angstrom,Angstrom)
----------------------------------------------------------------------
current energy                               -3.33400753 Hartree
energy change                      -0.00009909     0.00018000    T
constrained gradient max            0.00561350     0.00100000    F
constrained gradient rms            0.00171113     0.00066667    F
gradient max                        0.00561350
gradient rms                        0.00171113
cart. step max                      0.12579579     0.01000000    F
cart. step rms                      0.05437646     0.00666667    F
 
 
--------
Geometry
--------
Formula: C4H8Cl4OTi
Atoms
  Index Symbol   x (angstrom)   y (angstrom)   z (angstrom)
      1      H     0.77885913    -1.29841450     1.30921051
      2      C    -0.78213427     0.19096832     0.90686663
      3      C     0.32151469    -0.77009439     0.45951227
      4      C     1.44711667    -0.18113789    -0.36642391
      5      O     1.45606703     0.91952558    -0.87374846
      6      H    -1.02778843     0.85563798     0.07163368
      7      H    -0.08721074    -1.57685051    -0.17281315
      8      H    -0.19465319     0.39005892     2.99869315
      9      C    -0.41007020     1.02960850     2.13464074
     10      H     0.47246896     1.64786744     1.94255935
     11      H    -1.23176600     1.69765173     2.41218034
     12      H    -1.68677464    -0.38852515     1.12361135
     13      H     2.30759885    -0.87639907    -0.51665029
     14     Ti     1.00405728     6.56724322    -1.25085263
     15     Cl     1.33001642     4.42125266    -1.22790305
     16     Cl     2.24791259     7.50839253     0.28572409
     17     Cl    -1.10609724     6.98583748    -0.83941649
     18     Cl     1.53886527     7.36743298    -3.21648377
 
Total System Charge             0.00000
 
 *** GOStep11 ***

 Energy gradients wrt nuclear displacements
 ==========================================

     Atom      Cartesian (a.u./angstrom)
                 X         Y         Z
 ----------------------------------------
     1 H     0.000112  0.000214 -0.000166
     2 C    -0.000930 -0.001289 -0.000405
     3 C    -0.000501  0.000010  0.001237
     4 C     0.003440 -0.001581 -0.000505
     5 O    -0.000919  0.002351 -0.001443
     6 H     0.000804  0.000449  0.000139
     7 H    -0.000006 -0.000171 -0.000090
     8 H     0.000053 -0.000602 -0.000415
     9 C    -0.000361  0.001136  0.001840
    10 H     0.000460 -0.000311 -0.000601
    11 H    -0.000095 -0.000282 -0.000155
    12 H     0.000053  0.000603 -0.000522
    13 H    -0.002137  0.001598  0.000757
    14 Ti    0.000659 -0.003078 -0.000169
    15 Cl   -0.000370  0.000610  0.000299
    16 Cl    0.000351  0.000147  0.000439
    17 Cl   -0.000731  0.000060  0.000157
    18 Cl    0.000116  0.000137 -0.000398
 ----------------------------------------
 Mulliken charges used for AMS results%charges...

 dE(predicted):    -0.90725E-04, dE(actual):    -0.91729E-04, Trust radius:    0.400000, all in a.u.
 
----------------------------------------------------------------------
Geometry Convergence after Step  11       (Hartree/Angstrom,Angstrom)
----------------------------------------------------------------------
current energy                               -3.33409926 Hartree
energy change                      -0.00009173     0.00018000    T
constrained gradient max            0.00343858     0.00100000    F
constrained gradient rms            0.00100544     0.00066667    F
gradient max                        0.00343858
gradient rms                        0.00100544
cart. step max                      0.03610675     0.01000000    F
cart. step rms                      0.01479308     0.00666667    F
 
 
--------
Geometry
--------
Formula: C4H8Cl4OTi
Atoms
  Index Symbol   x (angstrom)   y (angstrom)   z (angstrom)
      1      H     0.77351484    -1.30151781     1.31397605
      2      C    -0.77932284     0.19691201     0.90803229
      3      C     0.31736403    -0.77398019     0.46295732
      4      C     1.44546283    -0.19938755    -0.36902423
      5      O     1.46494222     0.89573572    -0.88305438
      6      H    -1.03091252     0.85233949     0.06732789
      7      H    -0.09974379    -1.58143653    -0.16306219
      8      H    -0.19244799     0.41754329     2.99837309
      9      C    -0.40121435     1.04769404     2.12570256
     10      H     0.48490886     1.65979433     1.93061922
     11      H    -1.21809432     1.72533279     2.39474624
     12      H    -1.68376323    -0.38021973     1.13642743
     13      H     2.30177721    -0.90453286    -0.52100352
     14     Ti     1.00024698     6.56422259    -1.24518708
     15     Cl     1.35481790     4.42068464    -1.25355651
     16     Cl     2.21963755     7.49876335     0.31462170
     17     Cl    -1.11784364     6.94973073    -0.84374296
     18     Cl     1.53865245     7.40237753    -3.19381257
 
Total System Charge             0.00000
 
 *** GOStep12 ***

 Energy gradients wrt nuclear displacements
 ==========================================

     Atom      Cartesian (a.u./angstrom)
                 X         Y         Z
 ----------------------------------------
     1 H     0.000301 -0.000005 -0.000233
     2 C    -0.000123 -0.000339 -0.000535
     3 C    -0.000466 -0.000035  0.000494
     4 C     0.000254  0.004862 -0.000960
     5 O    -0.000201 -0.003511  0.000504
     6 H     0.000468  0.000316  0.000208
     7 H    -0.000120 -0.000313 -0.000055
     8 H    -0.000114 -0.000523 -0.000197
     9 C    -0.000183  0.000899  0.001224
    10 H     0.000198  0.000124  0.000042
    11 H     0.000132  0.000060 -0.000010
    12 H    -0.000609 -0.000217 -0.000389
    13 H     0.000437  0.000467 -0.000381
    14 Ti    0.000505 -0.002125 -0.000104
    15 Cl   -0.000241 -0.000111  0.000257
    16 Cl    0.000326  0.000185  0.000421
    17 Cl   -0.000670  0.000094  0.000125
    18 Cl    0.000105  0.000171 -0.000410
 ----------------------------------------
 Mulliken charges used for AMS results%charges...

 dE(predicted):    -0.48325E-04, dE(actual):    -0.71449E-04, Trust radius:    0.400000, all in a.u.
 
----------------------------------------------------------------------
Geometry Convergence after Step  12       (Hartree/Angstrom,Angstrom)
----------------------------------------------------------------------
current energy                               -3.33417070 Hartree
energy change                      -0.00007145     0.00018000    T
constrained gradient max            0.00486044     0.00100000    F
constrained gradient rms            0.00094795     0.00066667    F
gradient max                        0.00486044
gradient rms                        0.00094795
cart. step max                      0.05794406     0.01000000    F
cart. step rms                      0.02538241     0.00666667    F
 
 
--------
Geometry
--------
Formula: C4H8Cl4OTi
Atoms
  Index Symbol   x (angstrom)   y (angstrom)   z (angstrom)
      1      H     0.76479846    -1.30528988     1.32460143
      2      C    -0.77780069     0.20218268     0.91129708
      3      C     0.30957164    -0.78157054     0.47045232
      4      C     1.43959941    -0.22792583    -0.37225160
      5      O     1.47566501     0.86270799    -0.89568413
      6      H    -1.04599129     0.83760044     0.06039031
      7      H    -0.11948944    -1.59141851    -0.14408333
      8      H    -0.17904853     0.46632997     2.99353317
      9      C    -0.38396158     1.07670456     2.10590932
     10      H     0.50684347     1.67640874     1.89501323
     11      H    -1.19241740     1.76950031     2.36264389
     12      H    -1.67774121    -0.37198886     1.16741486
     13      H     2.28652560    -0.94987692    -0.52682631
     14     Ti     0.99544359     6.56235091    -1.23495593
     15     Cl     1.39850661     4.42477318    -1.29069822
     16     Cl     2.16812501     7.48642208     0.36507659
     17     Cl    -1.13535490     6.89282393    -0.85874577
     18     Cl     1.54470840     7.46032158    -3.15274654
 
Total System Charge             0.00000
 
 *** GOStep13 ***

 Energy gradients wrt nuclear displacements
 ==========================================

     Atom      Cartesian (a.u./angstrom)
                 X         Y         Z
 ----------------------------------------
     1 H     0.000323 -0.000286 -0.000174
     2 C     0.000733  0.001344 -0.000765
     3 C    -0.000113 -0.000672  0.000184
     4 C    -0.003546  0.006416  0.001186
     5 O     0.000881 -0.002814 -0.000684
     6 H    -0.000123  0.000036  0.000111
     7 H    -0.000370 -0.000221  0.000176
     8 H    -0.000305 -0.000279  0.000145
     9 C     0.000027 -0.000280  0.000323
    10 H     0.000027  0.000318  0.000466
    11 H     0.000159  0.000344  0.000055
    12 H    -0.001019 -0.000877  0.000075
    13 H     0.003325 -0.001651 -0.001337
    14 Ti    0.000068 -0.000240  0.000042
    15 Cl    0.000002 -0.001363  0.000176
    16 Cl    0.000060  0.000092  0.000094
    17 Cl   -0.000154  0.000060  0.000006
    18 Cl    0.000026  0.000074 -0.000078
 ----------------------------------------
 Mulliken charges used for AMS results%charges...

 dE(predicted):    -0.59471E-04, dE(actual):    -0.87721E-04, Trust radius:    0.400000, all in a.u.
 
----------------------------------------------------------------------
Geometry Convergence after Step  13       (Hartree/Angstrom,Angstrom)
----------------------------------------------------------------------
current energy                               -3.33425843 Hartree
energy change                      -0.00008772     0.00018000    T
constrained gradient max            0.00641575     0.00100000    F
constrained gradient rms            0.00127974     0.00066667    F
gradient max                        0.00641575
gradient rms                        0.00127974
cart. step max                      0.05402584     0.01000000    F
cart. step rms                      0.02202658     0.00666667    F
 
 
--------
Geometry
--------
Formula: C4H8Cl4OTi
Atoms
  Index Symbol   x (angstrom)   y (angstrom)   z (angstrom)
      1      H     0.75705925    -1.31323462     1.33631562
      2      C    -0.78166772     0.19417094     0.91316159
      3      C     0.30447867    -0.79344125     0.47817758
      4      C     1.43757053    -0.24824754    -0.36356032
      5      O     1.48715556     0.84528346    -0.87831855
      6      H    -1.07391967     0.80322022     0.05090874
      7      H    -0.12649711    -1.60563206    -0.13149953
      8      H    -0.16372979     0.52035581     2.98183796
      9      C    -0.37587885     1.10241004     2.07707643
     10      H     0.51245982     1.69623932     1.84189567
     11      H    -1.18182038     1.80299598     2.32113920
     12      H    -1.67022083    -0.38253254     1.20192987
     13      H     2.27499148    -0.98180361    -0.52572220
     14     Ti     0.99667711     6.56734401    -1.22493179
     15     Cl     1.43532466     4.43525186    -1.32123323
     16     Cl     2.15355892     7.48168341     0.38977749
     17     Cl    -1.13690337     6.85676342    -0.84213479
     18     Cl     1.52934391     7.50922900    -3.12447938
 
Total System Charge             0.00000
 
 *** GOStep14 ***

 Energy gradients wrt nuclear displacements
 ==========================================

     Atom      Cartesian (a.u./angstrom)
                 X         Y         Z
 ----------------------------------------
     1 H     0.000264 -0.000224 -0.000193
     2 C     0.000874  0.002250 -0.000717
     3 C     0.000585 -0.000710 -0.000580
     4 C    -0.004792  0.008510  0.001302
     5 O     0.000806 -0.004437  0.000181
     6 H    -0.000512 -0.000211  0.000092
     7 H    -0.000383  0.000023  0.000220
     8 H    -0.000441  0.000214  0.000393
     9 C     0.000179 -0.001432 -0.000683
    10 H    -0.000015  0.000366  0.000762
    11 H     0.000183  0.000511  0.000156
    12 H    -0.000805 -0.001051  0.000383
    13 H     0.004041 -0.002575 -0.001550
    14 Ti   -0.000532  0.001894  0.000249
    15 Cl    0.000285 -0.002593  0.000050
    16 Cl   -0.000443 -0.000233 -0.000580
    17 Cl    0.000868 -0.000032 -0.000161
    18 Cl   -0.000161 -0.000269  0.000675
 ----------------------------------------
 Mulliken charges used for AMS results%charges...

 dE(predicted):    -0.55230E-04, dE(actual):    -0.85159E-04, Trust radius:    0.400000, all in a.u.
 
----------------------------------------------------------------------
Geometry Convergence after Step  14       (Hartree/Angstrom,Angstrom)
----------------------------------------------------------------------
current energy                               -3.33434358 Hartree
energy change                      -0.00008516     0.00018000    T
constrained gradient max            0.00851059     0.00100000    F
constrained gradient rms            0.00177190     0.00066667    F
gradient max                        0.00851059
gradient rms                        0.00177190
cart. step max                      0.08042151     0.01000000    F
cart. step rms                      0.03477744     0.00666667    F
 
 
--------
Geometry
--------
Formula: C4H8Cl4OTi
Atoms
  Index Symbol   x (angstrom)   y (angstrom)   z (angstrom)
      1      H     0.74302077    -1.31788033     1.36421895
      2      C    -0.78690731     0.18574278     0.90670339
      3      C     0.29946002    -0.81010702     0.49405305
      4      C     1.44089976    -0.28023653    -0.34412365
      5      O     1.50727548     0.81522153    -0.85555878
      6      H    -1.09780557     0.75796489     0.02584980
      7      H    -0.12860749    -1.63033134    -0.10658337
      8      H    -0.15610774     0.60077732     2.95645680
      9      C    -0.37265781     1.14166138     2.02756517
     10      H     0.51450094     1.72388101     1.76205974
     11      H    -1.17627534     1.85325130     2.24656035
     12      H    -1.66552118    -0.38651265     1.23098900
     13      H     2.26709063    -1.02604236    -0.50168024
     14     Ti     0.99894778     6.57038856    -1.20544031
     15     Cl     1.48869370     4.45089312    -1.37038874
     16     Cl     2.16898795     7.47092197     0.40579643
     17     Cl    -1.13011186     6.79530405    -0.76675960
     18     Cl     1.46309946     7.57515815    -3.08937761
 
Total System Charge             0.00000
 
 *** GOStep15 ***

 Energy gradients wrt nuclear displacements
 ==========================================

     Atom      Cartesian (a.u./angstrom)
                 X         Y         Z
 ----------------------------------------
     1 H    -0.000056 -0.000120 -0.000094
     2 C     0.000825  0.002152 -0.000364
     3 C     0.001108 -0.000570 -0.000897
     4 C    -0.004240  0.005177  0.001706
     5 O     0.000414 -0.000886 -0.000417
     6 H    -0.000681 -0.000403  0.000112
     7 H    -0.000195  0.000223  0.000092
     8 H    -0.000546  0.000726  0.000515
     9 C     0.000158 -0.002426 -0.001614
    10 H     0.000132  0.000366  0.000799
    11 H     0.000256  0.000581  0.000216
    12 H    -0.000198 -0.000771  0.000488
    13 H     0.002993 -0.002679 -0.000799
    14 Ti   -0.001153  0.003728  0.000536
    15 Cl    0.000625 -0.003916 -0.000117
    16 Cl   -0.000810 -0.000486 -0.001034
    17 Cl    0.001596 -0.000085 -0.000295
    18 Cl   -0.000228 -0.000610  0.001168
 ----------------------------------------
 Mulliken charges used for AMS results%charges...

 dE(predicted):    -0.64121E-04, dE(actual):    -0.88340E-04, Trust radius:    0.400000, all in a.u.
 
----------------------------------------------------------------------
Geometry Convergence after Step  15       (Hartree/Angstrom,Angstrom)
----------------------------------------------------------------------
current energy                               -3.33443192 Hartree
energy change                      -0.00008834     0.00018000    T
constrained gradient max            0.00517811     0.00100000    F
constrained gradient rms            0.00151244     0.00066667    F
gradient max                        0.00517811
gradient rms                        0.00151244
cart. step max                      0.17778636     0.01000000    F
cart. step rms                      0.07097124     0.00666667    F
 
 
--------
Geometry
--------
Formula: C4H8Cl4OTi
Atoms
  Index Symbol   x (angstrom)   y (angstrom)   z (angstrom)
      1      H     0.71348463    -1.29821408     1.42830799
      2      C    -0.78591183     0.20416370     0.88169799
      3      C     0.29009507    -0.82440224     0.52937929
      4      C     1.45001303    -0.34846818    -0.31500067
      5      O     1.54130712     0.72933660    -0.86196561
      6      H    -1.09151088     0.72447190    -0.03264052
      7      H    -0.14094184    -1.66494400    -0.04027013
      8      H    -0.16348064     0.74190871     2.90443909
      9      C    -0.36118270     1.22427291     1.93986166
     10      H     0.53963498     1.76855477     1.64262695
     11      H    -1.15122003     1.96516356     2.10408078
     12      H    -1.66950600    -0.33735817     1.24060489
     13      H     2.26057027    -1.11377620    -0.43318105
     14     Ti     0.99045503     6.54228964    -1.16182788
     15     Cl     1.58392880     4.46723914    -1.49267949
     16     Cl     2.18722493     7.39956133     0.45259924
     17     Cl    -1.12317043     6.61751770    -0.61422393
     18     Cl     1.30819268     7.69273873    -2.99146825
 
Total System Charge             0.00000
 
 *** GOStep16 ***

 Energy gradients wrt nuclear displacements
 ==========================================

     Atom      Cartesian (a.u./angstrom)
                 X         Y         Z
 ----------------------------------------
     1 H    -0.000428  0.000036 -0.000019
     2 C     0.000683  0.000944  0.000570
     3 C     0.001255 -0.000030 -0.000963
     4 C    -0.001467 -0.000179  0.001061
     5 O    -0.000446  0.002608 -0.000768
     6 H    -0.000561 -0.000398  0.000191
     7 H     0.000156  0.000315 -0.000221
     8 H    -0.000794  0.000677  0.000340
     9 C    -0.000082 -0.002391 -0.001867
    10 H     0.000271  0.000228  0.000404
    11 H     0.000397  0.000679  0.000208
    12 H     0.000525 -0.000108  0.000401
    13 H     0.000516 -0.001432  0.000466
    14 Ti   -0.001553  0.004565  0.000965
    15 Cl    0.000888 -0.004169 -0.000461
    16 Cl   -0.000931 -0.000557 -0.001125
    17 Cl    0.001825  0.000020 -0.000430
    18 Cl   -0.000255 -0.000809  0.001247
 ----------------------------------------
 Mulliken charges used for AMS results%charges...
 Rebuilding optimization coordinates

 dE(predicted):    -0.88736E-04, dE(actual):    -0.82381E-04, Trust radius:    0.800000, all in a.u.
 
----------------------------------------------------------------------
Geometry Convergence after Step  16       (Hartree/Angstrom,Angstrom)
----------------------------------------------------------------------
current energy                               -3.33451431 Hartree
energy change                      -0.00008238     0.00018000    T
constrained gradient max            0.00456366     0.00100000    F
constrained gradient rms            0.00122553     0.00066667    F
gradient max                        0.00456366
gradient rms                        0.00122553
cart. step max                      0.20984947     0.01000000    F
cart. step rms                      0.06405386     0.00666667    F
 
 
--------
Geometry
--------
Formula: C4H8Cl4OTi
Atoms
  Index Symbol   x (angstrom)   y (angstrom)   z (angstrom)
      1      H     0.68555681    -1.26371300     1.47781707
      2      C    -0.77700158     0.24710001     0.85852638
      3      C     0.27684232    -0.81962653     0.55725429
      4      C     1.45043208    -0.40594291    -0.30238575
      5      O     1.56385359     0.64580490    -0.89541212
      6      H    -1.05979453     0.73836434    -0.07898842
      7      H    -0.16990105    -1.67414220     0.02120002
      8      H    -0.15870710     0.84879990     2.86225970
      9      C    -0.33424221     1.29892337     1.87804131
     10      H     0.58452359     1.80273327     1.56511264
     11      H    -1.10464246     2.06743549     2.00274627
     12      H    -1.67750787    -0.25584882     1.22964334
     13      H     2.24468832    -1.18904791    -0.38138797
     14     Ti     0.97186651     6.48849662    -1.12340180
     15     Cl     1.67216498     4.47661264    -1.59977640
     16     Cl     2.15106126     7.30356702     0.52635933
     17     Cl    -1.13270496     6.40766823    -0.53971194
     18     Cl     1.19149447     7.77287141    -2.87755557
 
Total System Charge             0.00000
 
 *** GOStep17 ***

 Energy gradients wrt nuclear displacements
 ==========================================

     Atom      Cartesian (a.u./angstrom)
                 X         Y         Z
 ----------------------------------------
     1 H    -0.000507  0.000072 -0.000030
     2 C     0.000261 -0.000026  0.001249
     3 C     0.000938  0.000456 -0.000356
     4 C     0.001135 -0.003785  0.000447
     5 O    -0.000758  0.003718 -0.001180
     6 H    -0.000342 -0.000222  0.000173
     7 H     0.000276  0.000261 -0.000420
     8 H    -0.000873  0.000070  0.000061
     9 C    -0.000172 -0.001151 -0.001087
    10 H     0.000265 -0.000164 -0.000113
    11 H     0.000321  0.000594 -0.000051
    12 H     0.000814  0.000358  0.000173
    13 H    -0.001353  0.000335  0.001001
    14 Ti   -0.001505  0.003680  0.001008
    15 Cl    0.000886 -0.003202 -0.000605
    16 Cl   -0.000603 -0.000352 -0.000792
    17 Cl    0.001282 -0.000018 -0.000317
    18 Cl   -0.000064 -0.000625  0.000838
 ----------------------------------------
 Mulliken charges used for AMS results%charges...

 dE(predicted):    -0.65902E-04, dE(actual):    -0.51189E-04, Trust radius:    0.800000, all in a.u.
 
----------------------------------------------------------------------
Geometry Convergence after Step  17       (Hartree/Angstrom,Angstrom)
----------------------------------------------------------------------
current energy                               -3.33456549 Hartree
energy change                      -0.00005119     0.00018000    T
constrained gradient max            0.00378430     0.00100000    F
constrained gradient rms            0.00117887     0.00066667    F
gradient max                        0.00378430
gradient rms                        0.00117887
cart. step max                      0.06231342     0.01000000    F
cart. step rms                      0.01846938     0.00666667    F
 
 
--------
Geometry
--------
Formula: C4H8Cl4OTi
Atoms
  Index Symbol   x (angstrom)   y (angstrom)   z (angstrom)
      1      H     0.69157171    -1.26984968     1.46840066
      2      C    -0.77883580     0.23838093     0.85925350
      3      C     0.28090018    -0.82064705     0.55109102
      4      C     1.45402842    -0.39383099    -0.30355215
      5      O     1.56498496     0.66282887    -0.88646157
      6      H    -1.05664085     0.74208535    -0.07322458
      7      H    -0.16107973    -1.67346008     0.00834070
      8      H    -0.15859941     0.81345560     2.87216819
      9      C    -0.34545543     1.27757997     1.89654641
     10      H     0.56540589     1.79954907     1.59049892
     11      H    -1.12630745     2.03256368     2.03681506
     12      H    -1.68033408    -0.27292515     1.21697921
     13      H     2.25236709    -1.17224874    -0.39068501
     14     Ti     0.97630089     6.50345480    -1.13387868
     15     Cl     1.64097537     4.47305617    -1.57294684
     16     Cl     2.17506882     7.32937028     0.49744916
     17     Cl    -1.12859082     6.46998165    -0.54287485
     18     Cl     1.21222242     7.75071116    -2.91357878
 
Total System Charge             0.00000
 
 *** GOStep18 ***

 Energy gradients wrt nuclear displacements
 ==========================================

     Atom      Cartesian (a.u./angstrom)
                 X         Y         Z
 ----------------------------------------
     1 H    -0.000301 -0.000030 -0.000015
     2 C    -0.000313 -0.000059  0.000498
     3 C     0.000659  0.000502  0.000036
     4 C     0.000834 -0.001462 -0.000221
     5 O    -0.000466  0.001307 -0.000214
     6 H    -0.000322 -0.000153  0.000058
     7 H     0.000079  0.000164 -0.000296
     8 H    -0.000372  0.000298  0.000122
     9 C     0.000166 -0.000933 -0.000749
    10 H     0.000225 -0.000131  0.000300
    11 H     0.000226  0.000330 -0.000247
    12 H     0.000527  0.000112  0.000070
    13 H    -0.000947  0.000609  0.000521
    14 Ti   -0.000966  0.002451  0.000651
    15 Cl    0.000607 -0.002443 -0.000380
    16 Cl   -0.000350 -0.000214 -0.000418
    17 Cl    0.000755  0.000004 -0.000194
    18 Cl   -0.000042 -0.000351  0.000477
 ----------------------------------------
 Mulliken charges used for AMS results%charges...

 dE(predicted):    -0.22482E-04, dE(actual):    -0.31974E-04, Trust radius:    0.800000, all in a.u.
 
----------------------------------------------------------------------
Geometry Convergence after Step  18       (Hartree/Angstrom,Angstrom)
----------------------------------------------------------------------
current energy                               -3.33459747 Hartree
energy change                      -0.00003197     0.00018000    T
constrained gradient max            0.00245001     0.00100000    F
constrained gradient rms            0.00068435     0.00066667    F
gradient max                        0.00245001
gradient rms                        0.00068435
cart. step max                      0.07845685     0.01000000    F
cart. step rms                      0.02142351     0.00666667    F
 
 
--------
Geometry
--------
Formula: C4H8Cl4OTi
Atoms
  Index Symbol   x (angstrom)   y (angstrom)   z (angstrom)
      1      H     0.68106649    -1.26087530     1.48093493
      2      C    -0.77714341     0.24758193     0.84057427
      3      C     0.28040092    -0.82012343     0.55497922
      4      C     1.46541152    -0.40734974    -0.29209448
      5      O     1.59149800     0.64379462    -0.88108190
      6      H    -1.02841847     0.75575762    -0.09712722
      7      H    -0.15997123    -1.67748022     0.01798937
      8      H    -0.16466648     0.81297834     2.86048932
      9      C    -0.35841008     1.28321806     1.88910614
     10      H     0.54609453     1.81952400     1.58930012
     11      H    -1.15014575     2.02551201     2.03411263
     12      H    -1.69129734    -0.25632481     1.17664197
     13      H     2.25949515    -1.19083787    -0.36869861
     14     Ti     0.97796338     6.50012799    -1.12606303
     15     Cl     1.64634997     4.47755065    -1.57645470
     16     Cl     2.22506678     7.34419314     0.46173927
     17     Cl    -1.10789187     6.45049360    -0.46441800
     18     Cl     1.14258007     7.74231524    -2.91958893
 
Total System Charge             0.00000
 
 *** GOStep19 ***

 Energy gradients wrt nuclear displacements
 ==========================================

     Atom      Cartesian (a.u./angstrom)
                 X         Y         Z
 ----------------------------------------
     1 H    -0.000030 -0.000124  0.000012
     2 C    -0.000649 -0.000482 -0.000394
     3 C    -0.000283  0.000208  0.000692
     4 C     0.000807 -0.000403 -0.000393
     5 O     0.000225 -0.000187 -0.000072
     6 H    -0.000070  0.000065 -0.000077
     7 H    -0.000092 -0.000092 -0.000146
     8 H     0.000240  0.000344  0.000091
     9 C     0.000202  0.000089  0.000140
    10 H     0.000055 -0.000168  0.000545
    11 H     0.000144 -0.000027 -0.000402
    12 H     0.000186 -0.000044 -0.000072
    13 H    -0.000722  0.001307 -0.000079
    14 Ti    0.000089 -0.000399 -0.000085
    15 Cl    0.000064 -0.000511  0.000078
    16 Cl    0.000282  0.000153  0.000402
    17 Cl   -0.000441  0.000005  0.000136
    18 Cl   -0.000006  0.000269 -0.000377
 ----------------------------------------
 Mulliken charges used for AMS results%charges...

 dE(predicted):    -0.39992E-04, dE(actual):    -0.46470E-04, Trust radius:    0.800000, all in a.u.
 
----------------------------------------------------------------------
Geometry Convergence after Step  19       (Hartree/Angstrom,Angstrom)
----------------------------------------------------------------------
current energy                               -3.33464394 Hartree
energy change                      -0.00004647     0.00018000    T
constrained gradient max            0.00130653     0.00100000    F
constrained gradient rms            0.00035272     0.00066667    T
gradient max                        0.00130653
gradient rms                        0.00035272
cart. step max                      0.05554258     0.01000000    F
cart. step rms                      0.01633827     0.00666667    F
 
 
--------
Geometry
--------
Formula: C4H8Cl4OTi
Atoms
  Index Symbol   x (angstrom)   y (angstrom)   z (angstrom)
      1      H     0.67334390    -1.25466977     1.49500730
      2      C    -0.77683786     0.25063177     0.82922240
      3      C     0.27965525    -0.82301025     0.56170500
      4      C     1.47244994    -0.42248155    -0.28019994
      5      O     1.60968724     0.62524672    -0.87217952
      6      H    -1.01936133     0.75110083    -0.11492826
      7      H    -0.15945157    -1.68508123     0.03149339
      8      H    -0.16465467     0.83183691     2.84481244
      9      C    -0.36422787     1.29536147     1.87133729
     10      H     0.53508587     1.83751734     1.56646313
     11      H    -1.16176456     2.03177537     2.01456600
     12      H    -1.69506262    -0.24787359     1.16276057
     13      H     2.26170446    -1.21228855    -0.34952783
     14     Ti     0.97848547     6.49921313    -1.11714173
     15     Cl     1.65380626     4.48665218    -1.59486566
     16     Cl     2.25470638     7.34453130     0.44700531
     17     Cl    -1.09179001     6.42779127    -0.40887541
     18     Cl     1.09220790     7.75380246    -2.90631410
 
Total System Charge             0.00000
 
 *** GOStep20 ***

 Energy gradients wrt nuclear displacements
 ==========================================

     Atom      Cartesian (a.u./angstrom)
                 X         Y         Z
 ----------------------------------------
     1 H     0.000104 -0.000082 -0.000032
     2 C    -0.000530 -0.000471 -0.000581
     3 C    -0.000475  0.000104  0.000537
     4 C     0.000637  0.000443 -0.000473
     5 O     0.000115 -0.000911  0.000349
     6 H     0.000020  0.000148 -0.000047
     7 H    -0.000097 -0.000101 -0.000067
     8 H     0.000261  0.000306  0.000093
     9 C     0.000137  0.000222  0.000162
    10 H    -0.000001 -0.000028  0.000457
    11 H     0.000151 -0.000074 -0.000250
    12 H     0.000006 -0.000093 -0.000034
    13 H    -0.000314  0.001007 -0.000275
    14 Ti    0.000389 -0.001327 -0.000306
    15 Cl   -0.000159  0.000225  0.000258
    16 Cl    0.000386  0.000217  0.000479
    17 Cl   -0.000624  0.000029  0.000200
    18 Cl   -0.000004  0.000387 -0.000471
 ----------------------------------------
 Mulliken charges used for AMS results%charges...

 dE(predicted):    -0.11465E-04, dE(actual):    -0.20911E-04, Trust radius:    0.800000, all in a.u.
 
----------------------------------------------------------------------
Geometry Convergence after Step  20       (Hartree/Angstrom,Angstrom)
----------------------------------------------------------------------
current energy                               -3.33466485 Hartree
energy change                      -0.00002091     0.00018000    T
constrained gradient max            0.00132846     0.00100000    F
constrained gradient rms            0.00039343     0.00066667    T
gradient max                        0.00132846
gradient rms                        0.00039343
cart. step max                      0.18270709     0.01000000    F
cart. step rms                      0.06479121     0.00666667    F
 
 
--------
Geometry
--------
Formula: C4H8Cl4OTi
Atoms
  Index Symbol   x (angstrom)   y (angstrom)   z (angstrom)
      1      H     0.64279558    -1.22143964     1.55112086
      2      C    -0.77404587     0.27078487     0.79210268
      3      C     0.27253522    -0.82728129     0.59173077
      4      C     1.48848828    -0.48110851    -0.24007204
      5      O     1.66473009     0.54737517    -0.85507808
      6      H    -0.99621162     0.72937724    -0.17800109
      7      H    -0.16874854    -1.70665523     0.09332225
      8      H    -0.16237492     0.93534865     2.78112370
      9      C    -0.36722865     1.35900063     1.79062625
     10      H     0.52617406     1.89653847     1.46127975
     11      H    -1.17055757     2.09379281     1.90870127
     12      H    -1.70326151    -0.20180866     1.13353995
     13      H     2.25773924    -1.29430725    -0.27434301
     14     Ti     0.97429648     6.47474021    -1.07601236
     15     Cl     1.70530483     4.52176255    -1.69288823
     16     Cl     2.31633833     7.31069070     0.43704103
     17     Cl    -1.03749205     6.27236166    -0.23620195
     18     Cl     0.90950082     7.81088344    -2.80765137
 
Total System Charge             0.00000
 
 *** GOStep21 ***

 Energy gradients wrt nuclear displacements
 ==========================================

     Atom      Cartesian (a.u./angstrom)
                 X         Y         Z
 ----------------------------------------
     1 H     0.000205 -0.000010 -0.000052
     2 C    -0.000195 -0.000265 -0.000501
     3 C    -0.000364 -0.000117  0.000201
     4 C    -0.000156  0.000762 -0.000366
     5 O     0.000073 -0.000587  0.000508
     6 H     0.000128  0.000186  0.000055
     7 H    -0.000069 -0.000015  0.000099
     8 H     0.000060  0.000161  0.000120
     9 C     0.000159 -0.000033 -0.000213
    10 H    -0.000133  0.000354  0.000124
    11 H     0.000116 -0.000031  0.000180
    12 H    -0.000215 -0.000100  0.000043
    13 H     0.000394  0.000086 -0.000293
    14 Ti    0.000663 -0.002240 -0.000583
    15 Cl   -0.000482  0.001177  0.000485
    16 Cl    0.000468  0.000276  0.000415
    17 Cl   -0.000707 -0.000021  0.000260
    18 Cl    0.000056  0.000415 -0.000482
 ----------------------------------------
 Mulliken charges used for AMS results%charges...

 dE(predicted):    -0.26943E-04, dE(actual):    -0.45846E-04, Trust radius:    0.800000, all in a.u.
 
----------------------------------------------------------------------
Geometry Convergence after Step  21       (Hartree/Angstrom,Angstrom)
----------------------------------------------------------------------
current energy                               -3.33471070 Hartree
energy change                      -0.00004585     0.00018000    T
constrained gradient max            0.00224020     0.00100000    F
constrained gradient rms            0.00046596     0.00066667    T
gradient max                        0.00224020
gradient rms                        0.00046596
cart. step max                      0.20785509     0.01000000    F
cart. step rms                      0.06874954     0.00666667    F
 
 
--------
Geometry
--------
Formula: C4H8Cl4OTi
Atoms
  Index Symbol   x (angstrom)   y (angstrom)   z (angstrom)
      1      H     0.61081581    -1.17728640     1.60386516
      2      C    -0.76962506     0.30034015     0.75611863
      3      C     0.26248741    -0.82139387     0.62142550
      4      C     1.49811733    -0.53235354    -0.20212403
      5      O     1.71022844     0.47136143    -0.84648155
      6      H    -0.97355328     0.71498532    -0.23751102
      7      H    -0.18505908    -1.71545377     0.15626292
      8      H    -0.16150881     1.04837306     2.71554895
      9      C    -0.36021815     1.42931990     1.70660031
     10      H     0.53641860     1.94761159     1.35606853
     11      H    -1.15984268     2.17290805     1.79104491
     12      H    -1.70963112    -0.14275220     1.10747699
     13      H     2.24737346    -1.36538328    -0.19648454
     14     Ti     0.96720396     6.42888709    -1.03118300
     15     Cl     1.76512224     4.55774653    -1.80041864
     16     Cl     2.35158699     7.25926656     0.44550987
     17     Cl    -0.97451609     6.06450656    -0.08845529
     18     Cl     0.72258220     7.84937264    -2.67692334
 
Total System Charge             0.00000
 
 *** GOStep22 ***

 Energy gradients wrt nuclear displacements
 ==========================================

     Atom      Cartesian (a.u./angstrom)
                 X         Y         Z
 ----------------------------------------
     1 H     0.000188  0.000087 -0.000022
     2 C    -0.000021 -0.000122 -0.000183
     3 C    -0.000028 -0.000321 -0.000107
     4 C    -0.000740  0.000333 -0.000221
     5 O     0.000153 -0.000033  0.000404
     6 H     0.000181  0.000160  0.000099
     7 H    -0.000018  0.000082  0.000152
     8 H    -0.000198  0.000117  0.000125
     9 C     0.000250 -0.000384 -0.000602
    10 H    -0.000225  0.000616 -0.000191
    11 H     0.000111  0.000132  0.000514
    12 H    -0.000214 -0.000031  0.000043
    13 H     0.000596 -0.000372 -0.000146
    14 Ti    0.000853 -0.002130 -0.000747
    15 Cl   -0.000682  0.001464  0.000739
    16 Cl    0.000360  0.000202  0.000240
    17 Cl   -0.000552 -0.000120  0.000216
    18 Cl   -0.000010  0.000319 -0.000312
 ----------------------------------------
 Mulliken charges used for AMS results%charges...

 dE(predicted):    -0.28148E-04, dE(actual):    -0.38055E-05, Trust radius:    0.115493, all in a.u.
 
----------------------------------------------------------------------
Geometry Convergence after Step  22       (Hartree/Angstrom,Angstrom)
----------------------------------------------------------------------
current energy                               -3.33471450 Hartree
energy change                      -0.00000381     0.00018000    T
constrained gradient max            0.00213093     0.00100000    F
constrained gradient rms            0.00048945     0.00066667    T
gradient max                        0.00213093
gradient rms                        0.00048945
cart. step max                      0.03220251     0.01000000    F
cart. step rms                      0.01085267     0.00666667    F
 
 
--------
Geometry
--------
Formula: C4H8Cl4OTi
Atoms
  Index Symbol   x (angstrom)   y (angstrom)   z (angstrom)
      1      H     0.61529100    -1.18256120     1.59739353
      2      C    -0.76941055     0.29821442     0.76295513
      3      C     0.26359727    -0.82130546     0.61823028
      4      C     1.49524754    -0.52601547    -0.20917389
      5      O     1.69809041     0.47737350    -0.85768684
      6      H    -0.97693858     0.71830850    -0.22760333
      7      H    -0.18417308    -1.71312690     0.14881838
      8      H    -0.16615958     1.03299272     2.72721659
      9      C    -0.35684375     1.42065297     1.71932147
     10      H     0.54644118     1.93093036     1.37415467
     11      H    -1.15103726     2.17027583     1.80165226
     12      H    -1.70793099    -0.14747679     1.11461852
     13      H     2.24868524    -1.35497896    -0.20460015
     14     Ti     0.96552401     6.43463420    -1.03792881
     15     Cl     1.75816893     4.55242687    -1.78947543
     16     Cl     2.33567600     7.25915785     0.45450246
     17     Cl    -0.99103033     6.09041211    -0.12010599
     18     Cl     0.75478471     7.85014127    -2.69194848
 
Total System Charge             0.00000
 
 *** GOStep23 ***

 Energy gradients wrt nuclear displacements
 ==========================================

     Atom      Cartesian (a.u./angstrom)
                 X         Y         Z
 ----------------------------------------
     1 H     0.000093  0.000126 -0.000019
     2 C     0.000185  0.000132  0.000171
     3 C     0.000016 -0.000296 -0.000242
     4 C    -0.000375 -0.000336  0.000524
     5 O     0.000113  0.000852 -0.000351
     6 H     0.000093  0.000036  0.000071
     7 H    -0.000003  0.000079  0.000111
     8 H    -0.000209 -0.000194  0.000007
     9 C     0.000076  0.000001 -0.000263
    10 H    -0.000107  0.000119 -0.000390
    11 H    -0.000079  0.000083  0.000341
    12 H    -0.000076  0.000074  0.000025
    13 H     0.000302 -0.000437 -0.000091
    14 Ti    0.000448 -0.001191 -0.000365
    15 Cl   -0.000405  0.000741  0.000445
    16 Cl    0.000155  0.000088  0.000091
    17 Cl   -0.000245 -0.000015  0.000057
    18 Cl    0.000017  0.000139 -0.000120
 ----------------------------------------
 Mulliken charges used for AMS results%charges...

 dE(predicted):    -0.94356E-05, dE(actual):    -0.16172E-04, Trust radius:    0.230985, all in a.u.
 
----------------------------------------------------------------------
Geometry Convergence after Step  23       (Hartree/Angstrom,Angstrom)
----------------------------------------------------------------------
current energy                               -3.33473067 Hartree
energy change                      -0.00001617     0.00018000    T
constrained gradient max            0.00119223     0.00100000    F
constrained gradient rms            0.00031160     0.00066667    T
gradient max                        0.00119223
gradient rms                        0.00031160
cart. step max                      0.11011736     0.01000000    F
cart. step rms                      0.03138521     0.00666667    F
 
 
--------
Geometry
--------
Formula: C4H8Cl4OTi
Atoms
  Index Symbol   x (angstrom)   y (angstrom)   z (angstrom)
      1      H     0.60005958    -1.16170768     1.61737839
      2      C    -0.76637171     0.31708329     0.75138722
      3      C     0.25711765    -0.81363775     0.63048508
      4      C     1.49405502    -0.54349390    -0.19732439
      5      O     1.70162440     0.44161664    -0.87253184
      6      H    -0.96890863     0.71879110    -0.24779231
      7      H    -0.19597324    -1.70920406     0.17315685
      8      H    -0.17620519     1.08231074     2.70541995
      9      C    -0.34327663     1.45243594     1.68688160
     10      H     0.57753909     1.92991245     1.34139185
     11      H    -1.12081022     2.22193297     1.73851065
     12      H    -1.70935423    -0.11301827     1.10983627
     13      H     2.24305319    -1.37532906    -0.16708652
     14     Ti     0.95813551     6.40669755    -1.01899599
     15     Cl     1.79280320     4.56734664    -1.83810768
     16     Cl     2.32450685     7.22620387     0.47782222
     17     Cl    -0.97196981     5.98029475    -0.08333133
     18     Cl     0.68195734     7.86182061    -2.62675966
 
Total System Charge             0.00000
 
 *** GOStep24 ***

 Energy gradients wrt nuclear displacements
 ==========================================

     Atom      Cartesian (a.u./angstrom)
                 X         Y         Z
 ----------------------------------------
     1 H    -0.000086  0.000147  0.000011
     2 C     0.000544  0.000620  0.000739
     3 C     0.000271 -0.000125 -0.000512
     4 C     0.000368 -0.001179  0.001231
     5 O    -0.000190  0.001832 -0.001114
     6 H    -0.000101 -0.000198  0.000008
     7 H     0.000054  0.000061  0.000040
     8 H    -0.000302 -0.000613 -0.000143
     9 C    -0.000053  0.000554  0.000210
    10 H     0.000047 -0.000654 -0.000800
    11 H    -0.000380  0.000131  0.000064
    12 H     0.000185  0.000188 -0.000042
    13 H    -0.000358 -0.000490  0.000165
    14 Ti   -0.000420  0.000792  0.000401
    15 Cl    0.000207 -0.000596 -0.000207
    16 Cl   -0.000299 -0.000170 -0.000250
    17 Cl    0.000420 -0.000005 -0.000119
    18 Cl    0.000093 -0.000293  0.000320
 ----------------------------------------
 Mulliken charges used for AMS results%charges...

 dE(predicted):    -0.15521E-04, dE(actual):     0.71004E-05, Trust radius:    0.057746, all in a.u.
 
----------------------------------------------------------------------
Geometry Convergence after Step  24       (Hartree/Angstrom,Angstrom)
[...]
    17    Cl      -0.000009  -0.000003   0.000023
    18    Cl       0.000002  -0.000006   0.000012
 
 Mode:    41      Frequency (cm-1):     1381.7183     Intensity (km/mol):        7.6206
 Index  Atom      ---- Displacements (x/y/z) ----
     1     H      -0.136772  -0.273334  -0.021759
     2     C      -0.002863   0.041130   0.008289
     3     C       0.003503  -0.005913  -0.000667
     4     C       0.063236  -0.022567  -0.018695
     5     O      -0.016490   0.065289  -0.031426
     6     H      -0.028753  -0.055299  -0.022080
     7     H       0.031531  -0.160619   0.261980
     8     H       0.003961   0.106404   0.025379
     9     C       0.001120  -0.028571  -0.017417
    10     H      -0.024061   0.102850   0.077581
    11     H       0.065583   0.041870   0.048966
    12     H       0.044608  -0.152478  -0.077183
    13     H      -0.468264  -0.455893   0.545049
    14    Ti       0.000021  -0.000010   0.000000
    15    Cl      -0.000007   0.000012   0.000004
    16    Cl      -0.000003  -0.000000  -0.000005
    17    Cl      -0.000018  -0.000003   0.000006
    18    Cl      -0.000001   0.000003  -0.000004
 
 Mode:    42      Frequency (cm-1):     1402.0040     Intensity (km/mol):       13.2003
 Index  Atom      ---- Displacements (x/y/z) ----
     1     H      -0.113517  -0.585916  -0.173626
     2     C       0.011921  -0.010070  -0.011000
     3     C      -0.033181   0.084907  -0.016818
     4     C      -0.017269   0.000537   0.013865
     5     O       0.009335  -0.018885   0.005266
     6     H       0.004860   0.049965   0.014149
     7     H       0.185031  -0.285115   0.486359
     8     H       0.103205   0.111052   0.009202
     9     C      -0.018684  -0.024705  -0.017924
    10     H      -0.007667   0.090571   0.144348
    11     H       0.095741   0.091999   0.040586
    12     H       0.028258   0.010215   0.042471
    13     H       0.237244   0.213617  -0.267600
    14    Ti      -0.000052   0.000051   0.000050
    15    Cl       0.000028  -0.000066  -0.000032
    16    Cl      -0.000007  -0.000005  -0.000010
    17    Cl       0.000044   0.000010  -0.000028
    18    Cl       0.000003  -0.000008   0.000005
 
 Mode:    43      Frequency (cm-1):     1448.6620     Intensity (km/mol):        3.2647
 Index  Atom      ---- Displacements (x/y/z) ----
     1     H       0.016089   0.004280  -0.008155
     2     C      -0.059517  -0.009030  -0.040464
     3     C      -0.010857  -0.000364  -0.001052
     4     C       0.004933  -0.006038   0.002899
     5     O       0.000530   0.006774  -0.004634
     6     H       0.636712   0.209060  -0.060198
     7     H      -0.006714  -0.004624  -0.006332
     8     H      -0.181296   0.002613   0.024606
     9     C       0.006941  -0.003655  -0.000969
    10     H      -0.069802   0.035584  -0.140580
    11     H       0.044831   0.046901   0.102758
    12     H       0.266775  -0.149728   0.609967
    13     H      -0.018415  -0.024060   0.022842
    14    Ti       0.000036  -0.000068  -0.000039
    15    Cl      -0.000025   0.000068   0.000030
    16    Cl       0.000013   0.000009   0.000015
    17    Cl      -0.000035  -0.000005   0.000020
    18    Cl      -0.000004   0.000013  -0.000012
 
 Mode:    44      Frequency (cm-1):     1465.3621     Intensity (km/mol):        9.7203
 Index  Atom      ---- Displacements (x/y/z) ----
     1     H      -0.000928   0.058016   0.022227
     2     C      -0.033935   0.006465   0.007851
     3     C       0.007040  -0.010283  -0.000725
     4     C       0.000266   0.000939  -0.001685
     5     O      -0.000412   0.000350   0.000552
     6     H       0.144499   0.030166  -0.009867
     7     H      -0.023517   0.026258  -0.042621
     8     H       0.540582  -0.296732  -0.157189
     9     C      -0.038697  -0.005159   0.025122
    10     H      -0.026039   0.242293   0.316581
    11     H       0.128640   0.145297  -0.589714
    12     H       0.036319  -0.101941   0.072524
    13     H      -0.015054  -0.013261   0.015201
    14    Ti      -0.000071  -0.000037   0.000055
    15    Cl       0.000013  -0.000016  -0.000015
    16    Cl       0.000018   0.000013   0.000012
    17    Cl       0.000065   0.000032  -0.000041
    18    Cl      -0.000003   0.000023  -0.000025
 
 Mode:    45      Frequency (cm-1):     1474.2761     Intensity (km/mol):        9.0522
 Index  Atom      ---- Displacements (x/y/z) ----
     1     H      -0.014753  -0.000650   0.002025
     2     C       0.024673  -0.022358   0.016019
     3     C      -0.002791   0.005173  -0.000408
     4     C      -0.000779   0.001370  -0.002664
     5     O      -0.000082  -0.002964   0.002208
     6     H      -0.113509   0.026652   0.056718
     7     H       0.013922  -0.003507   0.002375
     8     H      -0.367719  -0.289202  -0.018806
     9     C       0.023417  -0.030345   0.030635
    10     H      -0.364321   0.455485  -0.378992
    11     H       0.366118   0.335882  -0.098814
    12     H      -0.059855   0.059948  -0.108125
    13     H       0.011597   0.012377  -0.010270
    14    Ti      -0.000068  -0.000132   0.000040
    15    Cl      -0.000006   0.000056  -0.000001
    16    Cl       0.000045   0.000031   0.000035
    17    Cl       0.000053   0.000039  -0.000044
    18    Cl      -0.000008   0.000045  -0.000047
 
 Mode:    46      Frequency (cm-1):     1759.7381     Intensity (km/mol):      163.6265
 Index  Atom      ---- Displacements (x/y/z) ----
     1     H       0.215705   0.119543  -0.048896
     2     C       0.000471  -0.017671   0.007507
     3     C       0.003673   0.033330  -0.022542
     4     C      -0.171641  -0.523063   0.419558
     5     O       0.091076   0.362326  -0.275556
     6     H      -0.046009  -0.005808   0.031915
     7     H       0.084479   0.048791  -0.181128
     8     H       0.019262  -0.005677  -0.004907
     9     C      -0.003718  -0.000487  -0.002471
    10     H      -0.009348   0.025058   0.032390
    11     H       0.026881   0.026886  -0.000984
    12     H      -0.064607   0.097723  -0.039935
    13     H       0.366956  -0.009908  -0.202416
    14    Ti      -0.000225   0.000370   0.000212
    15    Cl       0.000156  -0.000383  -0.000179
    16    Cl      -0.000067  -0.000053  -0.000076
    17    Cl       0.000189   0.000030  -0.000112
    18    Cl       0.000026  -0.000089   0.000078
 
 Mode:    47      Frequency (cm-1):     2785.7797     Intensity (km/mol):      179.1687
 Index  Atom      ---- Displacements (x/y/z) ----
     1     H       0.022271  -0.011622   0.044661
     2     C      -0.000183   0.000813   0.000423
     3     C      -0.000337   0.003055  -0.001549
     4     C       0.057673  -0.058120   0.002895
     5     O      -0.000934  -0.002173   0.001876
     6     H      -0.003436   0.001901  -0.005829
     7     H      -0.014512  -0.036918  -0.023458
     8     H       0.000734  -0.000598   0.002219
     9     C       0.000108  -0.000124  -0.000199
    10     H      -0.000732   0.000176   0.000706
    11     H      -0.001462   0.001505  -0.000405
    12     H       0.001258  -0.003031  -0.000018
    13     H      -0.671119   0.730509  -0.066336
    14    Ti       0.000004   0.000032   0.000003
    15    Cl       0.000007  -0.000022  -0.000009
    16    Cl      -0.000010  -0.000007  -0.000009
    17    Cl      -0.000004  -0.000004   0.000003
    18    Cl       0.000002  -0.000011   0.000010
 
 Mode:    48      Frequency (cm-1):     2956.8767     Intensity (km/mol):       27.7698
 Index  Atom      ---- Displacements (x/y/z) ----
     1     H       0.147128  -0.113070   0.455465
     2     C      -0.008067  -0.003753   0.002260
     3     C       0.017757   0.067496  -0.009692
     4     C      -0.003099   0.005642  -0.000677
     5     O      -0.000004  -0.001046   0.000628
     6     H      -0.001045  -0.006217   0.014728
     7     H      -0.370094  -0.692208  -0.341678
     8     H      -0.002707   0.009431  -0.025042
     9     C       0.001224   0.000577   0.001202
    10     H      -0.023373  -0.011451   0.009562
    11     H       0.009906  -0.007817   0.001418
    12     H       0.102901   0.046695  -0.042091
    13     H       0.044279  -0.041806  -0.000077
    14    Ti      -0.000007  -0.000006   0.000005
    15    Cl       0.000001   0.000001  -0.000001
    16    Cl       0.000002   0.000002   0.000002
    17    Cl       0.000006   0.000003  -0.000004
    18    Cl      -0.000000   0.000003  -0.000003
 
 Mode:    49      Frequency (cm-1):     2987.1766     Intensity (km/mol):        3.5805
 Index  Atom      ---- Displacements (x/y/z) ----
     1     H       0.222511  -0.226953   0.751165
     2     C       0.017540  -0.001072   0.012212
     3     C      -0.033297  -0.010689  -0.074545
     4     C      -0.002497   0.000931  -0.001029
     5     O      -0.000099  -0.000271  -0.000119
     6     H      -0.031643   0.081870  -0.230040
     7     H       0.186717   0.363011   0.151333
     8     H      -0.017071   0.042155  -0.117086
     9     C      -0.000251   0.005888   0.007937
    10     H      -0.062874  -0.028302   0.025316
    11     H       0.083465  -0.080457   0.004322
    12     H      -0.176101  -0.074800   0.074255
    13     H       0.016899  -0.013429   0.002586
    14    Ti      -0.000002  -0.000004   0.000001
    15    Cl      -0.000000   0.000002   0.000000
    16    Cl       0.000001   0.000001   0.000001
    17    Cl       0.000001   0.000002  -0.000002
    18    Cl      -0.000000   0.000001  -0.000002
 
 Mode:    50      Frequency (cm-1):     2992.0383     Intensity (km/mol):       23.2884
 Index  Atom      ---- Displacements (x/y/z) ----
     1     H      -0.043061   0.043407  -0.140008
     2     C      -0.002372   0.001821  -0.008180
     3     C       0.005196  -0.000915   0.012541
     4     C       0.000789  -0.000313   0.000002
     5     O      -0.000001  -0.000088   0.000034
     6     H       0.016972  -0.035381   0.102417
     7     H      -0.019437  -0.033867  -0.013104
     8     H      -0.090845   0.223009  -0.668367
     9     C       0.007839   0.026862   0.042555
    10     H      -0.369652  -0.174355   0.152040
    11     H       0.367837  -0.359895   0.013378
    12     H       0.008634   0.005658  -0.005167
    13     H      -0.006798   0.005638  -0.000252
    14    Ti      -0.000007   0.000005   0.000012
    15    Cl       0.000004  -0.000007  -0.000007
    16    Cl      -0.000002  -0.000001  -0.000003
    17    Cl       0.000008   0.000007  -0.000008
    18    Cl      -0.000000   0.000001  -0.000002
 
 Mode:    51      Frequency (cm-1):     3001.6008     Intensity (km/mol):       29.8409
 Index  Atom      ---- Displacements (x/y/z) ----
     1     H      -0.057536   0.060932  -0.195689
     2     C       0.063644   0.010822   0.015272
     3     C       0.013180   0.011575   0.023115
     4     C      -0.000469   0.000028   0.000791
     5     O      -0.000010   0.000219  -0.000073
     6     H      -0.058192   0.166624  -0.452580
     7     H      -0.101099  -0.200488  -0.087474
     8     H      -0.003007  -0.002004   0.007596
     9     C      -0.009314   0.003460   0.000402
    10     H       0.045476   0.024235  -0.019282
    11     H       0.066658  -0.064041   0.003184
    12     H      -0.693242  -0.295708   0.274959
    13     H       0.002860  -0.001262  -0.000827
    14    Ti       0.000001  -0.000007   0.000005
    15    Cl      -0.000001   0.000003  -0.000000
    16    Cl      -0.000000   0.000001  -0.000001
    17    Cl       0.000001   0.000002  -0.000002
    18    Cl      -0.000001   0.000004  -0.000004
 
 Mode:    52      Frequency (cm-1):     3037.7482     Intensity (km/mol):        4.6633
 Index  Atom      ---- Displacements (x/y/z) ----
     1     H      -0.034639   0.031180  -0.106999
     2     C      -0.025662  -0.034799   0.070441
     3     C       0.002942  -0.002820   0.009461
     4     C       0.000064  -0.000612   0.000345
     5     O      -0.000057   0.000372  -0.000302
     6     H      -0.120730   0.248362  -0.696702
     7     H      -0.000850  -0.004683   0.000280
     8     H       0.030469  -0.070636   0.221941
     9     C       0.001276   0.027733  -0.024339
    10     H      -0.222817  -0.098024   0.078826
    11     H       0.174372  -0.163002  -0.006039
    12     H       0.429805   0.175483  -0.152377
    13     H      -0.000107   0.000270   0.000253
    14    Ti      -0.000006   0.000001   0.000008
    15    Cl       0.000002  -0.000004  -0.000005
    16    Cl      -0.000000   0.000000  -0.000001
    17    Cl       0.000006   0.000005  -0.000006
    18    Cl      -0.000000   0.000001  -0.000002
 
 Mode:    53      Frequency (cm-1):     3061.6947     Intensity (km/mol):       41.8983
 Index  Atom      ---- Displacements (x/y/z) ----
     1     H      -0.015480   0.015497  -0.044035
     2     C      -0.004761  -0.013836   0.030662
     3     C       0.001160  -0.000475   0.003838
     4     C      -0.000200  -0.000431   0.000389
     5     O       0.000002   0.000319  -0.000191
     6     H      -0.053981   0.112290  -0.319482
     7     H      -0.002115  -0.006412  -0.002948
     8     H      -0.067825   0.173230  -0.563884
     9     C       0.039984  -0.057775   0.047919
    10     H       0.089173   0.023714  -0.017151
    11     H      -0.500863   0.490608   0.006197
    12     H       0.119802   0.049581  -0.041704
    13     H       0.000427   0.000093  -0.000032
    14    Ti       0.000021   0.000016  -0.000008
    15    Cl      -0.000002  -0.000004   0.000001
    16    Cl      -0.000009  -0.000005  -0.000008
    17    Cl      -0.000018  -0.000013   0.000013
    18    Cl       0.000001  -0.000007   0.000007
 
 Mode:    54      Frequency (cm-1):     3081.9196     Intensity (km/mol):       23.4597
 Index  Atom      ---- Displacements (x/y/z) ----
     1     H      -0.003870   0.003150  -0.010006
     2     C      -0.011880  -0.008383   0.014138
     3     C       0.000379  -0.000636   0.000678
     4     C       0.000077  -0.000572   0.000263
     5     O      -0.000004   0.000393   0.000004
     6     H      -0.019054   0.037197  -0.108918
     7     H       0.001261   0.002133   0.000877
     8     H      -0.049092   0.071999  -0.218388
     9     C      -0.079684  -0.011372   0.040050
    10     H       0.726267   0.353982  -0.276823
    11     H       0.275837  -0.292340   0.013291
    12     H       0.154530   0.065934  -0.055873
    13     H      -0.001018   0.001402  -0.000716
    14    Ti      -0.000009   0.000015   0.000002
    15    Cl       0.000004  -0.000017  -0.000001
    16    Cl      -0.000001  -0.000002  -0.000000
    17    Cl       0.000009  -0.000000  -0.000003
    18    Cl       0.000001  -0.000004   0.000004

PES point character: Geometry corresponds to a local minimum on the PES.
                     (Hint: Very small negative frequencies do not count towards being a
                     transition state, as they usually indicate noise on a very flat PES. See
                     the PESPointCharacter%NegativeFrequenciesTolerance keyword documentation.)




 ============================
 Statistical Thermal Analysis  ***  ideal gas assumed  ***
 ============================
  
 Pressure:                  1.000000 atm.
 Temperature:             298.150000 K



 Moments of Inertia [amu*bohr^2] and principal axis
 ==================================================

        2121.3107      10135.6040      10559.2857
 ------------------------------------------------
          -0.0658         -0.7429         -0.6662
          -0.9763          0.1858         -0.1108
           0.2061          0.6431         -0.7375


 The rotational contribution to the molecular entropy includes
 a term, dependent on the symmetry number sigma. The results 
 reported below were computed using sigma = 1, determined from
 the point group symmetry of the input geometry (NOSYM). 
 If this is not the correct symmetry, try symmetrizing the molecule before
 running the calculation (note: linear molecules should be aligned along one
 of the Cartesian axes).
 Contributions from frequencies below 20 1/cm are not included in vibrational sums.
 Their contributions, if any, are reported separately.


     Temp                                                        Transl      Rotat     Vibrat     Total
     ----                                                        ------      -----     ------     -----

     298.15   Entropy (cal/mol-K):                               42.565     33.784     37.278    113.627
              Nuclear Internal Energy (kcal/mol):                 0.889      0.889     78.347     80.124
              Constant Volume Heat Capacity (cal/mol-K):          2.981      2.981     32.224     38.185
          (c) Constant Volume Heat Capacity (cal/mol-K):          2.981      2.981     32.073     38.035

 Contributions from frequencies below 20 1/cm
 Frequency (1/cm):                                   13.771     9.163     9.198
 Entropy (cal/mol-K):                                 7.375     8.185     8.177
 Nuclear Internal Energy (kcal/mol):                  0.593     0.593     0.593
 Constant Volume Heat Capacity (cal/mol-K):           1.986     1.987     1.987

       Summary of energy terms
                                                   hartree              eV         kcal/mol           kJ/mol
                                      --------------------     -----------       ----------      -----------
      Energy from Engine:               -3.334740075362784        -90.7429         -2092.58         -8755.36
      Nuclear Internal Energy:           0.127685989851157          3.4745            80.12           335.24
  (c) Nuclear Internal Energy:           0.127472192920971          3.4687            79.99           334.68
      Internal Energy U:                -3.207054085511628        -87.2684         -2012.46         -8420.12
      pV/n = RT:                         0.000944186013486          0.0257             0.59             2.48
      Enthalpy H:                       -3.206109899498142        -87.2427         -2011.86         -8417.64
      -T*S:                             -0.053987684356165         -1.4691           -33.88          -141.74
  (c) -T*S:                             -0.059904206302543         -1.6301           -37.59          -157.28
      Gibbs free energy:                -3.260097583854306        -88.7118         -2045.74         -8559.38
 
 
 
  (c) The properties marked with this symbol have been corrected using 'low vibrational frequency free rotor
      interpolation corrections'. For those terms all positive frequencies are used (also ones below 20 1/cm),
      but the contribution to the partition function of small vibrational frequencies is modified as described
      in the following paper:
      S. Grimme, 'Supramolecular Binding Thermodynamics by Dispersion-Corrected Density Functional Theory'
      (Chem. Eur. J. 2012, 18, 9955-9964)
      Configuration: Dampener Frequency          :   100.000 1/cm
                     Dampener Alpha              :     4.000
                     Averaging Moment of Inertia : 1.000E-44 kg m2

--------------
Atomic charges
--------------
  Index   Atom    Charge
      1      H   -0.1729
      2      C    0.4496
      3      C    0.3806
      4      C    0.6623
      5      O   -0.4889
      6      H   -0.1883
      7      H   -0.1707
      8      H   -0.2217
      9      C    0.6422
     10      H   -0.1865
     11      H   -0.2321
     12      H   -0.2097
     13      H   -0.2643
     14     Ti    0.8959
     15     Cl   -0.2045
     16     Cl   -0.2296
     17     Cl   -0.2313
     18     Cl   -0.2302


Dipole moment vector    (Debye):    -1.05282391   -1.88271946    1.50963303
              magnitude (Debye):     2.63288105


Final PES point is a local minimum. Geometry optimization successful!


AMS application finished. Exiting.
NORMAL TERMINATION
     Total cpu time:   25294.89
  Total system time:     270.83
 Total elapsed time:   37056.87
