

 Parallel Execution: Process Information
 ==============================================================================
 Rank   Node Name                              NodeID   MyNodeRank  NodeMaster
    0   DESKTOP-1M8FOJT                           0          0          0
    1   DESKTOP-1M8FOJT                           0          1         -1
    2   DESKTOP-1M8FOJT                           0          2         -1
    3   DESKTOP-1M8FOJT                           0          3         -1
 ==============================================================================


May use up to 4096MB of RAM as shared memory on node 0

 *******************************************************************************
 *                                                                             *
 *  --------------------------------                                           *
 *   Amsterdam Modeling Suite (AMS)              2022.101                      *
 *  --------------------------------                                           *
 *                                               r100871 2022-01-28            *
 *                                                                             *
 *                                                                             *
 *                              =================                              *
 *                              |               |                              *
 *                              |     A M S     |                              *
 *                              |               |                              *
 *                              =================                              *
 *                                                                             *
 *                                                                             *
 *   Online information and documentation:  https://www.scm.com/support/       *
 *   E-mail:  support@scm.com   info@scm.com                                   *
 *                                                                             *
 *   Scientific publications using AMS results must be properly referenced     *
 *   See the User Manuals (or the web site) for recommended citations          *
 *   The terms and conditions of the End User License Agreement apply to       *
 *   the use of AMS, https://www.scm.com/license-terms/                        *
 *                                                                             *
 *********************  x86_64_windows_intel / intelmpi  ***********************
 
 Licensed to: Mr. Yuman Hordijk / SCM / Amsterdam / Netherlands 2022-01-24 11:07:43
 SCM User ID: u24430
  
 AMS 2022.101  RunTime: Jan31-2022 16:46:22  ShM Nodes: 1  Procs: 4

 AMS jobname: ams
 AMS jobid  : 148733663

 Start   directory: D:/Users/Yuman/Desktop/MasterProject/manual_calculations/squaramide/tmp..5956.0.noindex/
 Results directory: D:/Users/Yuman/Desktop/MasterProject/manual_calculations/squaramide/squaramide_tBu_Ph.results/
 Scratch directory: Z:/SCMTMP/amstmp_ams_kid0.148733663/


 Communication costs MPI_COMM_WORLD:      4.055 usec per message,   0.0136 usec per 8-byte item
 Communication costs for intra-node:      2.073 usec per message,   0.0100 usec per 8-byte item

 RNG seed: -529688698 -1747983594 1462235422 706649610 -770978958 1231358287 1622374158 -3950340



                      ************************************************************************
                      *  ADF 2022.101  RunTime: Jan31-2022 16:46:22  ShM Nodes: 1  Procs: 4  *
                      ************************************************************************
  
       ***************************
       *  GEOMETRY OPTIMIZATION  *
       ***************************

Optimization Method                    Quasi Newton
Optimization Coordinates               Delocalized Coordinates
Optimize lattice                       F
 
 ------------------------------------------------------
 Convergence criteria (Hartree,Angstrom)
 ------------------------------------------------------
 Maximum gradient               0.001000000000
 Maximum rms gradient           0.000666666667
 Maximum step allowed           0.010000000000
 Maximum rms step allowed       0.006666666667
 Maximum energy change allowe   0.000640000000
 Maximum stress energy allowe   0.000500000000
 
Initial model Hessian                  Automatic Hessian
 
------------------------------------
Quasi-Newton Optimizer Parameters
------------------------------------
Hessian Update Method                  BFGS
Maximum number of steps                  384
First GDIIS cycle                          0
Maximum GDIIS vectors                      0
Trust radius (bohr)                        0.200000
Trust radius varies                        T
Constraints converged at all steps         T
Use projector                              T
 
 Rigid motions settings for: old optimizer
 Atomic rotations (x,y,z):     T T T
 Atomic translations (x,y,z):  T T T
 Tolerance:                   1.000000000000000E-006
 
--------
Geometry
--------
Formula: C27H32N2O3
Atoms
  Index Symbol   x (angstrom)   y (angstrom)   z (angstrom)
      1      O    -2.15977906     1.92292472    -0.01352742
      2      O     0.83847931     2.77000175     1.13712529
      3      C     0.73709873     0.43146381     0.34846681
      4      C     0.30971434     1.80444346     0.62575770
      5      C    -0.53339930     0.06626839    -0.11970458
      6      C    -1.06580463     1.41729959     0.11166563
      7      N    -1.07396623    -1.08641241    -0.53181100
      8      N     1.91036419    -0.22941530     0.46242756
      9      C    -2.43065712    -1.15968619    -1.06364538
     10      C     3.00082528     0.39160535     1.21595860
     11      C    -3.39698620    -1.80466063    -0.03357303
     12      C    -4.82849083    -1.78032605    -0.59044536
     13      H    -5.52794697    -2.12082658     0.17381253
     14      H    -5.10543513    -0.76775967    -0.88501860
     15      H    -4.92659901    -2.43615509    -1.45525011
     16      C    -2.99880097    -3.25060542     0.29488088
     17      H    -3.08988043    -3.89107650    -0.58243436
     18      H    -3.65160819    -3.64524970     1.07426100
     19      H    -1.97084688    -3.29528559     0.65341057
     20      C    -3.36132109    -0.96375466     1.25242168
     21      H    -3.59296996     0.07828388     1.03134044
     22      H    -4.08950344    -1.34127314     1.97077484
     23      H    -2.37304303    -1.00982017     1.70922435
     24      C     2.81795337     0.11911496     2.69769584
     25      C     3.04425082    -1.14554608     3.23673385
     26      C     2.85386931    -1.37412725     4.59245684
     27      C     2.43004582    -0.34423144     5.42131002
     28      C     2.19464025     0.91570504     4.88816902
     29      C     2.38481296     1.14591416     3.53332999
     30      H     3.36669552    -1.96199698     2.60006415
     31      H     3.03419687    -2.36223511     5.00168822
     32      H     2.28019241    -0.52475988     6.47997461
     33      H     1.85763190     1.72233305     5.52969306
     34      H     2.18991909     2.12852710     3.11786261
     35      H    -0.52478192    -1.93321435    -0.47983454
     36      H     1.86252671    -1.24210415     0.49067939
     37      C    -2.35465700    -1.87942126    -2.41240828
     38      H    -2.76354837    -0.12768567    -1.23207055
     39      H     2.93861797     1.47225065     1.04073934
     40      C     4.33157823    -0.12669544     0.67153459
     41      C     0.21565503    -2.80987154     2.33571738
     42      C    -0.16799061    -1.56856531     2.97836795
     43      C    -0.64394472    -1.50215201     4.23905841
     44      O     0.63520614    -2.87216842     1.19453249
     45      H     0.10089122    -3.72272831     2.95526428
     46      H    -0.03286342    -0.67438643     2.38260706
     47      H    -0.73341925    -2.42163681     4.81523905
     48      C    -1.03623985    -0.28625680     4.92349741
     49      C    -1.13356419     0.94927171     4.26548173
     50      C    -1.49017984     2.08949862     4.96192507
     51      C    -1.75657043     2.02321208     6.32456553
     52      C    -1.67171332     0.80552382     6.98874029
     53      C    -1.32019445    -0.33996355     6.29606831
     54      H    -0.93476786     1.02042011     3.20313686
     55      H    -1.56013663     3.03651835     4.43972251
     56      H    -2.03273380     2.91930829     6.86823041
     57      H    -1.88206637     0.75065516     8.05091046
     58      H    -1.25130373    -1.28854589     6.81800276
     59      H    -1.66472011    -1.34139983    -3.06227160
     60      H    -3.33149193    -1.90448576    -2.89180704
     61      H    -1.99056728    -2.89981779    -2.29448412
     62      H     5.15416914     0.30714153     1.23879405
     63      H     4.43177450     0.15935362    -0.37491829
     64      H     4.38866889    -1.21271474     0.74078394
 
Total System Charge             0.00000
Bonding info available!
 
 
----------------
ADF Engine Input
----------------
 
 Basis
 Type DZP
 Core Small
 End
 XC
 GGA OLYP
 End
 

 Title: *** (NO TITLE) ***

 Using automatic Hessian for delocalized coordinates.
 *** GO1_GOStep1 ***

 Energy gradients wrt nuclear displacements
 ==========================================

     Atom      Cartesian (a.u./angstrom)
                 X         Y         Z
 ----------------------------------------
     1 O     0.022098 -0.021494  0.003121
     2 O    -0.007443 -0.031554 -0.007085
     3 C    -0.015844  0.023067  0.010937
     4 C     0.001102  0.006931  0.004075
     5 C    -0.003835  0.031311  0.006248
     6 C    -0.005033  0.004073  0.003463
     7 N    -0.005802 -0.037183 -0.000642
     8 N     0.021048 -0.026649  0.009559
     9 C     0.001522  0.012099  0.008496
    10 C    -0.012756  0.009913 -0.002618
    11 C     0.010860  0.000092 -0.008761
    12 C    -0.009558  0.001419  0.000665
    13 H     0.005819  0.001768 -0.004047
    14 H     0.005069 -0.007266  0.002080
    15 H     0.004472  0.003381  0.004588
    16 C    -0.001364 -0.007970  0.005575
    17 H     0.001022  0.007300  0.002708
    18 H     0.003429  0.003947 -0.004940
    19 H    -0.000037  0.005106 -0.002312
    20 C    -0.002143  0.003421  0.006646
    21 H     0.001481 -0.005075 -0.001924
    22 H     0.004192  0.002920 -0.005890
    23 H     0.005328 -0.000953 -0.003284
    24 C    -0.006358 -0.006661  0.002802
    25 C    -0.005417  0.000015 -0.002971
    26 C    -0.003431  0.002041  0.000748
    27 C    -0.002271 -0.001076 -0.003665
    28 C    -0.003488 -0.000110 -0.004219
    29 C    -0.004390 -0.003290 -0.004069
    30 H    -0.001395  0.001822 -0.000877
    31 H    -0.001195  0.004095 -0.002037
    32 H     0.000531  0.000402 -0.003727
    33 H     0.001796 -0.002061 -0.001830
    34 H     0.000777 -0.000434  0.000946
    35 H    -0.004325  0.002062 -0.000309
    36 H     0.003025  0.004809  0.000161
    37 C     0.003290 -0.007618 -0.003732
    38 H    -0.003112  0.003587 -0.001863
    39 H     0.001337  0.005111 -0.001016
    40 C     0.004961 -0.008025 -0.001059
    41 C     0.016430 -0.016096 -0.044054
    42 C    -0.000425  0.006419  0.003395
    43 C    -0.000664 -0.003140  0.003847
    44 O    -0.019016  0.018980  0.035476
    45 H    -0.000155  0.005740 -0.000457
    46 H     0.000907  0.004379 -0.004914
    47 H    -0.000377  0.003316 -0.000860
    48 C     0.002972  0.004572 -0.000101
    49 C     0.002531 -0.000172  0.003365
    50 C     0.000274  0.000088  0.003609
    51 C     0.000109 -0.000578 -0.003243
    52 C     0.000769 -0.000224 -0.004361
    53 C     0.000749  0.000578  0.002306
    54 H     0.001712 -0.002299 -0.004756
    55 H     0.000304 -0.003855  0.003372
    56 H     0.001492 -0.004054 -0.002414
    57 H     0.001012  0.000203 -0.004508
    58 H     0.000088  0.002945 -0.002079
    59 H    -0.004083 -0.002759  0.005627
    60 H     0.003720  0.001940  0.005078
    61 H    -0.001741  0.006198  0.001849
    62 H    -0.005800 -0.000462 -0.003851
    63 H    -0.001203 -0.000746  0.007607
    64 H    -0.003567  0.005755  0.000126
 ----------------------------------------
 Mulliken charges used for AMS results%charges...
 
----------------------------------------------------------------------
Geometry Convergence after Step   1       (Hartree/Angstrom,Angstrom)
----------------------------------------------------------------------
current energy                              -13.89716392 Hartree
energy change                     -13.89716392     0.00064000    F
constrained gradient max            0.04405635     0.00100000    F
constrained gradient rms            0.00850582     0.00066667    F
gradient max                        0.04405635
gradient rms                        0.00850582
cart. step max                      0.09083722     0.01000000    F
cart. step rms                      0.02207007     0.00666667    F
 
 
--------
Geometry
--------
Formula: C27H32N2O3
Atoms
  Index Symbol   x (angstrom)   y (angstrom)   z (angstrom)
      1      O    -2.15358658     1.94623908    -0.06563359
      2      O     0.83196718     2.80952474     1.07777566
      3      C     0.74524544     0.42634345     0.33255888
      4      C     0.31534502     1.81066886     0.58678999
      5      C    -0.52422752     0.05385395    -0.13499718
      6      C    -1.05965117     1.41509949     0.07343791
      7      N    -1.06486126    -1.09688259    -0.53871701
      8      N     1.91744992    -0.22484405     0.45651056
      9      C    -2.42927324    -1.18482034    -1.07293341
     10      C     3.01711937     0.39102322     1.21699051
     11      C    -3.41987802    -1.82330653    -0.04703878
     12      C    -4.85148940    -1.76667102    -0.61039342
     13      H    -5.56325011    -2.09637647     0.15234655
     14      H    -5.11449814    -0.74462611    -0.90098384
     15      H    -4.97174989    -2.41659734    -1.48068565
     16      C    -3.06861881    -3.28645568     0.27480018
     17      H    -3.17673255    -3.92890524    -0.60322465
     18      H    -3.74244541    -3.66478686     1.04930172
     19      H    -2.04774152    -3.38126736     0.64513273
     20      C    -3.37149183    -0.98617140     1.24547502
     21      H    -3.58837373     0.06306702     1.03175234
     22      H    -4.10893456    -1.35633091     1.96408111
     23      H    -2.38310980    -1.03708431     1.71026284
     24      C     2.83548053     0.12808929     2.70566542
     25      C     3.06117635    -1.13634558     3.25080601
     26      C     2.86822229    -1.36352337     4.60621819
     27      C     2.44187514    -0.33434886     5.43729586
     28      C     2.20513027     0.92674386     4.90572092
     29      C     2.40046086     1.15732979     3.54693985
     30      H     3.38623297    -1.95671574     2.61944035
     31      H     3.04939386    -2.35329325     5.01728393
     32      H     2.29145672    -0.51785680     6.49730160
     33      H     1.86550658     1.73189421     5.55039403
     34      H     2.20413912     2.13972512     3.13046520
     35      H    -0.51023516    -1.94319342    -0.48145977
     36      H     1.87098534    -1.24012397     0.48902811
     37      C    -2.35335675    -1.88651707    -2.43491658
     38      H    -2.75318922    -0.15122594    -1.23378886
     39      H     2.95054445     1.46895360     1.04282815
     40      C     4.35412016    -0.11316978     0.66803116
     41      C     0.23043038    -2.80520766     2.35235840
     42      C    -0.15581876    -1.56252926     2.98476728
     43      C    -0.63072743    -1.49310220     4.24859996
     44      O     0.65538742    -2.87736502     1.19489854
     45      H     0.11810408    -3.71837947     2.97640748
     46      H    -0.02379097    -0.67167611     2.38301142
     47      H    -0.71606032    -2.41528821     4.82414697
     48      C    -1.02777274    -0.27966671     4.94166711
     49      C    -1.13117549     0.96199752     4.29282470
     50      C    -1.49293174     2.09867326     4.99627317
     51      C    -1.75856766     2.02483422     6.36280386
     52      C    -1.66900358     0.80114344     7.02084924
     53      C    -1.31309538    -0.34002041     6.31650958
     54      H    -0.93638457     1.04304082     3.23290152
     55      H    -1.56774683     3.04894184     4.47544286
     56      H    -2.03957373     2.91882278     6.91235309
     57      H    -1.87985462     0.73767446     8.08479808
     58      H    -1.24210374    -1.29292756     6.83397032
     59      H    -1.65814176    -1.34110177    -3.07911721
     60      H    -3.32820292    -1.90471555    -2.92495940
     61      H    -1.99206907    -2.91331284    -2.33687412
     62      H     5.17709296     0.32550752     1.23734246
     63      H     4.45211641     0.17693273    -0.38149234
     64      H     4.43001757    -1.20137023     0.73155609
 
Total System Charge             0.00000
Bonding info available!
 
 *** GO1_GOStep2 ***

 Energy gradients wrt nuclear displacements
 ==========================================

     Atom      Cartesian (a.u./angstrom)
                 X         Y         Z
 ----------------------------------------
     1 O    -0.007711 -0.000106  0.000536
     2 O     0.003565  0.003604  0.006642
     3 C    -0.012212  0.006934  0.006650
     4 C    -0.004978 -0.015142 -0.005542
     5 C     0.003323  0.016472  0.004337
     6 C     0.012721 -0.010081  0.003715
     7 N     0.001890 -0.018546  0.002262
     8 N     0.007599 -0.015373  0.003367
     9 C     0.000078  0.009282  0.006695
    10 C    -0.006776  0.007591 -0.002931
    11 C     0.004347  0.000144 -0.006565
    12 C    -0.005849 -0.002038  0.001575
    13 H     0.002340  0.000536 -0.001843
    14 H     0.002566 -0.002956  0.000573
    15 H     0.001845  0.001480  0.001842
    16 C    -0.000339 -0.005032  0.004390
    17 H     0.000819  0.002983  0.001426
    18 H     0.001730  0.001817 -0.002215
    19 H    -0.001992  0.002277 -0.001861
    20 C    -0.001972  0.003032  0.003790
    21 H     0.001769 -0.002421 -0.000950
    22 H     0.001142  0.001394 -0.002776
    23 H     0.008454  0.001302 -0.000187
    24 C    -0.003789 -0.006017 -0.000343
    25 C    -0.005449 -0.001309 -0.001361
    26 C    -0.003446  0.002834 -0.002298
    27 C    -0.002377 -0.000251 -0.003337
    28 C    -0.005285  0.000116  0.001552
    29 C    -0.004457  0.001640 -0.002477
    30 H    -0.001020  0.000788 -0.000401
    31 H    -0.000755  0.001458 -0.000788
    32 H     0.000341 -0.000072 -0.001354
    33 H     0.001088 -0.001063  0.000310
    34 H     0.000928 -0.000790  0.001108
    35 H    -0.001521  0.000001 -0.000807
    36 H     0.002971  0.001647  0.000556
    37 C     0.000589 -0.004819 -0.003404
    38 H    -0.000283  0.001151 -0.000876
    39 H     0.001504  0.001205 -0.000417
    40 C     0.004118 -0.004830  0.000057
    41 C     0.002857 -0.009854 -0.004153
    42 C     0.000248  0.005141  0.001490
    43 C    -0.000197 -0.003870  0.002578
    44 O    -0.002652  0.015244 -0.008060
    45 H    -0.001001  0.002064  0.002583
    46 H     0.001196  0.003863 -0.005312
    47 H    -0.000564  0.001473 -0.000072
    48 C     0.003234  0.003985 -0.000891
    49 C     0.003680 -0.000809 -0.001002
    50 C     0.000613  0.001060  0.000379
    51 C    -0.000415  0.000533 -0.000551
    52 C    -0.000013  0.000205 -0.000369
    53 C     0.000728  0.000189  0.001451
    54 H     0.000537 -0.002004 -0.000720
    55 H     0.000192 -0.001271  0.001367
    56 H     0.000551 -0.001453 -0.000729
    57 H     0.000321  0.000232 -0.001384
    58 H     0.000117  0.001124 -0.000980
    59 H    -0.001573 -0.001191  0.002284
    60 H     0.001691  0.000837  0.001706
    61 H    -0.000773  0.003220  0.000849
    62 H    -0.002007 -0.000041 -0.001927
    63 H    -0.000333 -0.000191  0.002907
    64 H    -0.001954  0.002672 -0.000093
 ----------------------------------------
 Mulliken charges used for AMS results%charges...

 dE(predicted):    -0.47632E-02, dE(actual):    -0.46896E-02, Trust radius:    0.400000, all in a.u.
 
----------------------------------------------------------------------
Geometry Convergence after Step   2       (Hartree/Angstrom,Angstrom)
----------------------------------------------------------------------
current energy                              -13.90185348 Hartree
energy change                      -0.00468956     0.00064000    F
constrained gradient max            0.01854867     0.00100000    F
constrained gradient rms            0.00422125     0.00066667    F
gradient max                        0.01854867
gradient rms                        0.00422125
cart. step max                      0.15257268     0.01000000    F
cart. step rms                      0.03562228     0.00666667    F
 
 
--------
Geometry
--------
Formula: C27H32N2O3
Atoms
  Index Symbol   x (angstrom)   y (angstrom)   z (angstrom)
      1      O    -2.11366562     1.98253612    -0.19648624
      2      O     0.85620162     2.84897318     0.92520298
      3      C     0.74999883     0.42272056     0.30942400
      4      C     0.33348205     1.82769002     0.49921682
      5      C    -0.52269254     0.04538792    -0.15351845
      6      C    -1.04196156     1.42844756    -0.00965087
      7      N    -1.07134733    -1.10610885    -0.53095165
      8      N     1.91448844    -0.22711678     0.46082886
      9      C    -2.43574893    -1.20885797    -1.07790545
     10      C     3.02590241     0.38227980     1.22223638
     11      C    -3.44838782    -1.85428099    -0.06856066
     12      C    -4.87117637    -1.75078004    -0.65200311
     13      H    -5.60155205    -2.08890618     0.09320395
     14      H    -5.11846434    -0.71370165    -0.91414953
     15      H    -5.00063545    -2.37256446    -1.54422534
     16      C    -3.12598281    -3.33475420     0.20858626
     17      H    -3.23865266    -3.95301544    -0.68940912
     18      H    -3.81879518    -3.72643341     0.96368147
     19      H    -2.11235951    -3.47259703     0.59163260
     20      C    -3.41107266    -1.05427593     1.25020131
     21      H    -3.63861373     0.00115113     1.06896450
     22      H    -4.15048344    -1.45120914     1.95675272
     23      H    -2.42532635    -1.10148452     1.72514324
     24      C     2.85910687     0.13532430     2.71825788
     25      C     3.07942902    -1.12784070     3.27192034
     26      C     2.88480970    -1.35159703     4.62646370
     27      C     2.46343316    -0.31868678     5.45703163
     28      C     2.23070662     0.94216796     4.92060846
     29      C     2.43205671     1.16951541     3.56022167
     30      H     3.40252690    -1.95504401     2.64746393
     31      H     3.06317157    -2.34254849     5.04026395
     32      H     2.31268524    -0.50034793     6.51862012
     33      H     1.89236737     1.75027851     5.56379202
     34      H     2.23174206     2.14989525     3.13810372
     35      H    -0.51577053    -1.95314433    -0.45482236
     36      H     1.85929340    -1.24380842     0.50747227
     37      C    -2.34482443    -1.88774311    -2.45120717
     38      H    -2.75927107    -0.17513003    -1.22970706
     39      H     2.95371106     1.45820908     1.04555218
     40      C     4.36188541    -0.11075133     0.66075051
     41      C     0.23022441    -2.78425382     2.38756575
     42      C    -0.15040030    -1.53580720     3.00056457
     43      C    -0.61768531    -1.46043961     4.26753497
     44      O     0.65142243    -2.88036834     1.23040693
     45      H     0.11839942    -3.69402192     3.01731971
     46      H    -0.02090114    -0.65124127     2.38980812
     47      H    -0.69881522    -2.38602110     4.84043545
     48      C    -1.01306185    -0.25446866     4.97577983
     49      C    -1.12344566     0.99841829     4.34729123
     50      C    -1.48845044     2.12305120     5.06917611
     51      C    -1.74716922     2.02863476     6.43756608
     52      C    -1.65238478     0.79398375     7.07646741
     53      C    -1.29650404    -0.33535175     6.35100150
     54      H    -0.93830349     1.10057016     3.28824676
     55      H    -1.57220629     3.08044582     4.55936375
     56      H    -2.03151070     2.91451791     7.00153868
     57      H    -1.86145931     0.71172054     8.14089163
     58      H    -1.22480759    -1.29710010     6.85463774
     59      H    -1.64646791    -1.32770681    -3.08402254
     60      H    -3.31576958    -1.90499692    -2.95361989
     61      H    -1.97905923    -2.91768222    -2.37235919
     62      H     5.18725901     0.33438137     1.22611505
     63      H     4.44987773     0.18009664    -0.39225928
     64      H     4.45628941    -1.20018747     0.72245027
 
Total System Charge             0.00000
Bonding info available!
 
 *** GO1_GOStep3 ***

 Energy gradients wrt nuclear displacements
 ==========================================

     Atom      Cartesian (a.u./angstrom)
                 X         Y         Z
 ----------------------------------------
     1 O     0.001713  0.000840  0.001063
     2 O    -0.002363  0.000397  0.000564
     3 C    -0.003062 -0.003534  0.005109
     4 C    -0.000050 -0.005243  0.000204
     5 C     0.002374  0.002730  0.001943
     6 C     0.000978 -0.004865  0.001626
     7 N     0.005936 -0.002243  0.003302
     8 N    -0.003960 -0.002600 -0.002726
     9 C    -0.002020  0.002486  0.002901
    10 C    -0.001553  0.002634 -0.000726
    11 C    -0.000401  0.000512 -0.001536
    12 C    -0.000996 -0.001270  0.000816
    13 H     0.000266 -0.000006  0.000020
    14 H    -0.000100  0.000431 -0.000408
    15 H     0.000188 -0.000027 -0.000424
    16 C     0.002312 -0.001295  0.001123
    17 H     0.000314 -0.000292 -0.000429
    18 H    -0.000066  0.000604 -0.000141
    19 H    -0.001682 -0.000193 -0.001015
    20 C    -0.003809  0.001077  0.002712
    21 H     0.001439 -0.000538 -0.000030
    22 H    -0.000782  0.000383  0.000161
    23 H     0.008715  0.002650  0.001868
    24 C    -0.001168 -0.002017  0.000244
    25 C    -0.006090 -0.000692  0.001498
    26 C    -0.003906  0.003013 -0.005784
    27 C    -0.002059 -0.000406 -0.002404
    28 C    -0.006790 -0.000176  0.002253
    29 C    -0.001310  0.002839 -0.000055
    30 H    -0.000548 -0.000230  0.000462
    31 H    -0.000405 -0.000408  0.000070
    32 H     0.000393 -0.000665  0.000363
    33 H     0.000655 -0.000417  0.001324
    34 H     0.000339 -0.000817  0.000478
    35 H     0.001057 -0.001761 -0.000791
    36 H     0.002218 -0.001409  0.000789
    37 C    -0.000383 -0.001483 -0.001446
    38 H     0.000843 -0.000571 -0.000196
    39 H     0.000947 -0.001049 -0.000081
    40 C     0.001809 -0.001744  0.000474
    41 C     0.001979 -0.001757  0.000972
    42 C     0.002372  0.000050 -0.003283
    43 C     0.000379 -0.002563  0.000832
    44 O    -0.002524  0.012592 -0.006666
    45 H    -0.000363  0.000163  0.000559
    46 H     0.001388  0.002665 -0.004801
    47 H    -0.000733  0.000231  0.000387
    48 C     0.003771  0.002685 -0.000636
    49 C     0.004408 -0.000077 -0.002318
    50 C     0.000659  0.000637 -0.001105
    51 C     0.000062  0.000239  0.000307
    52 C    -0.000056 -0.000197  0.000634
    53 C     0.000395  0.000555  0.000494
    54 H    -0.000662 -0.000769  0.001915
    55 H     0.000068  0.000232 -0.000256
    56 H    -0.000165  0.000226  0.000281
    57 H    -0.000130  0.000023  0.000467
    58 H     0.000020 -0.000214  0.000024
    59 H     0.000321 -0.000076 -0.000332
    60 H    -0.000117  0.000190 -0.000120
    61 H    -0.000166 -0.000045  0.000338
    62 H     0.000181  0.000174 -0.000179
    63 H     0.000177  0.000174 -0.000487
    64 H    -0.000257  0.000219 -0.000203
 ----------------------------------------
 Mulliken charges used for AMS results%charges...

 dE(predicted):    -0.28226E-02, dE(actual):    -0.31064E-02, Trust radius:    0.800000, all in a.u.
 
----------------------------------------------------------------------
Geometry Convergence after Step   3       (Hartree/Angstrom,Angstrom)
----------------------------------------------------------------------
current energy                              -13.90495993 Hartree
energy change                      -0.00310645     0.00064000    F
constrained gradient max            0.01259925     0.00100000    F
constrained gradient rms            0.00217544     0.00066667    F
gradient max                        0.01259925
gradient rms                        0.00217544
cart. step max                      0.13628329     0.01000000    F
cart. step rms                      0.04089500     0.00666667    F
 
 
--------
Geometry
--------
Formula: C27H32N2O3
Atoms
  Index Symbol   x (angstrom)   y (angstrom)   z (angstrom)
      1      O    -2.08360166     2.02590871    -0.29945469
      2      O     0.91088269     2.87848353     0.79010808
      3      C     0.74533468     0.42379589     0.29853328
      4      C     0.35798533     1.84965561     0.42276415
      5      C    -0.53423362     0.05221737    -0.15239169
      6      C    -1.02591476     1.45718559    -0.07354974
      7      N    -1.09454549    -1.10104423    -0.50072624
      8      N     1.89694771    -0.24184784     0.47360605
      9      C    -2.44610368    -1.21045989    -1.07966758
     10      C     3.02799695     0.35810193     1.21877595
     11      C    -3.47202279    -1.89517298    -0.10346900
     12      C    -4.88496130    -1.76173853    -0.70581490
     13      H    -5.63020585    -2.12455408     0.01485540
     14      H    -5.12672297    -0.71316454    -0.92946432
     15      H    -5.00837352    -2.34766259    -1.62382669
     16      C    -3.15282981    -3.38425968     0.12560871
     17      H    -3.25136758    -3.97280110    -0.79480542
     18      H    -3.85751048    -3.80648689     0.85527367
     19      H    -2.14443660    -3.53822601     0.52329631
     20      C    -3.45852680    -1.14817917     1.24766488
     21      H    -3.70773329    -0.08937559     1.10859928
     22      H    -4.20024928    -1.58749243     1.92772423
     23      H    -2.48209251    -1.19602536     1.74173733
     24      C     2.88042792     0.12744152     2.71962916
     25      C     3.09524224    -1.13004071     3.29082757
     26      C     2.90353808    -1.33636806     4.64945933
     27      C     2.49103194    -0.28880999     5.46788113
     28      C     2.26005756     0.96463979     4.91144308
     29      C     2.45883929     1.17263071     3.54816731
     30      H     3.41215909    -1.96817177     2.67695824
     31      H     3.07972517    -2.32305107     5.07565224
     32      H     2.34187698    -0.45351816     6.53275088
     33      H     1.92408786     1.78429721     5.54152638
     34      H     2.25711379     2.14771653     3.11134772
     35      H    -0.54328493    -1.95019445    -0.40420153
     36      H     1.82301955    -1.25798516     0.53465454
     37      C    -2.31628375    -1.84269389    -2.47061517
     38      H    -2.78111235    -0.17716930    -1.20770480
     39      H     2.95529494     1.43338658     1.03681784
     40      C     4.35205535    -0.14064191     0.63895398
     41      C     0.21170520    -2.76396243     2.43902812
     42      C    -0.15436899    -1.50404584     3.03004582
     43      C    -0.60580655    -1.42080236     4.30190429
     44      O     0.62364682    -2.89370288     1.28099153
     45      H     0.09763764    -3.66309133     3.08382829
     46      H    -0.02736619    -0.62650214     2.41124108
     47      H    -0.67740157    -2.34802909     4.87441664
     48      C    -0.99741005    -0.22212563     5.02220194
     49      C    -1.12123364     1.03721282     4.40825105
     50      C    -1.49024649     2.15055128     5.14587234
     51      C    -1.73763000     2.04028912     6.51520561
     52      C    -1.62873460     0.79946718     7.13943867
     53      C    -1.27152112    -0.31933123     6.39818487
     54      H    -0.94677339     1.15515160     3.34767133
     55      H    -1.58604746     3.11293049     4.64643044
     56      H    -2.02165677     2.91928317     7.09096355
     57      H    -1.82799925     0.70349719     8.20490036
     58      H    -1.19163400    -1.28634625     6.89142183
     59      H    -1.62076929    -1.24479416    -3.07298701
     60      H    -3.27764496    -1.86686680    -2.99277813
     61      H    -1.92681361    -2.86726093    -2.42283882
     62      H     5.18735378     0.30555523     1.19083285
     63      H     4.42439367     0.14356679    -0.41795980
     64      H     4.45010112    -1.23094806     0.70570930
 
Total System Charge             0.00000
Bonding info available!
 
 *** GO1_GOStep4 ***

 Energy gradients wrt nuclear displacements
 ==========================================

     Atom      Cartesian (a.u./angstrom)
                 X         Y         Z
 ----------------------------------------
     1 O    -0.000797  0.003334 -0.000098
     2 O    -0.000640  0.002823  0.000498
     3 C    -0.000324 -0.008741  0.004100
     4 C    -0.002263 -0.001458  0.000670
     5 C     0.001134 -0.006127  0.002608
     6 C     0.001362 -0.001286  0.001013
     7 N     0.006421  0.004082  0.002941
     8 N    -0.005932  0.002260 -0.004632
     9 C    -0.002163 -0.000035 -0.001920
    10 C     0.002104 -0.000024  0.001021
    11 C    -0.002618 -0.001137  0.000717
    12 C     0.001757 -0.000044 -0.000319
    13 H    -0.000825 -0.000200  0.000921
    14 H    -0.001207  0.001826 -0.000429
    15 H    -0.000890 -0.000492 -0.001092
    16 C     0.001929  0.001435  0.000295
    17 H    -0.000297 -0.001221 -0.000900
    18 H    -0.000982 -0.000810  0.001032
    19 H     0.000234 -0.000949  0.000131
    20 C    -0.002192 -0.000911  0.001812
    21 H     0.000176  0.000521  0.000100
    22 H    -0.000848 -0.000525  0.001244
    23 H     0.007033  0.002596  0.003741
    24 C     0.000768  0.001237  0.001649
    25 C    -0.006450 -0.000119  0.002262
    26 C    -0.004265  0.001048 -0.005691
    27 C    -0.001706 -0.000220 -0.000585
    28 C    -0.006692 -0.000502  0.000323
    29 C     0.000008  0.000760  0.000105
    30 H    -0.000358 -0.000756  0.000623
    31 H    -0.000197 -0.001057  0.000410
    32 H     0.000280 -0.000718  0.000893
    33 H     0.000415  0.000067  0.001026
    34 H    -0.000260  0.000143 -0.000645
    35 H     0.001842 -0.002811 -0.000616
    36 H     0.001629 -0.003190  0.000539
    37 C     0.000311  0.000756  0.000618
    38 H     0.000847 -0.000714 -0.000287
    39 H    -0.000227 -0.001057 -0.000103
    40 C    -0.000249  0.000524  0.000390
    41 C    -0.000108  0.003957  0.006451
    42 C     0.003260 -0.001796 -0.006317
    43 C     0.001038 -0.000637 -0.001002
    44 O    -0.001610  0.009415 -0.007467
    45 H     0.000013 -0.001028 -0.000672
    46 H     0.001551  0.001066 -0.003057
    47 H    -0.000528 -0.000385  0.000498
    48 C     0.004262  0.001515  0.000096
    49 C     0.004375 -0.000168 -0.001281
    50 C     0.000451 -0.000092 -0.000513
    51 C    -0.000247 -0.000261  0.000211
    52 C     0.000033 -0.000023  0.000264
    53 C     0.000220  0.000660 -0.000502
    54 H    -0.000847  0.000323  0.001122
    55 H     0.000062  0.000701 -0.000765
    56 H    -0.000113  0.000861  0.000581
    57 H    -0.000098 -0.000050  0.000915
    58 H    -0.000080 -0.000709  0.000459
    59 H     0.000974  0.000502 -0.001164
    60 H    -0.000602 -0.000047 -0.000781
    61 H     0.000237 -0.001359 -0.000378
    62 H     0.000988  0.000131  0.000783
    63 H     0.000154  0.000226 -0.001676
    64 H     0.000743 -0.001108 -0.000168
 ----------------------------------------
 Mulliken charges used for AMS results%charges...
 Rebuilding optimization coordinates

 dE(predicted):    -0.12784E-02, dE(actual):    -0.19714E-02, Trust radius:    1.000000, all in a.u.
 
----------------------------------------------------------------------
Geometry Convergence after Step   4       (Hartree/Angstrom,Angstrom)
----------------------------------------------------------------------
current energy                              -13.90693137 Hartree
energy change                      -0.00197145     0.00064000    F
constrained gradient max            0.00942102     0.00100000    F
constrained gradient rms            0.00222537     0.00066667    F
gradient max                        0.00942102
gradient rms                        0.00222537
cart. step max                      0.20391101     0.01000000    F
cart. step rms                      0.05194011     0.00666667    F
 
 
--------
Geometry
--------
Formula: C27H32N2O3
Atoms
  Index Symbol   x (angstrom)   y (angstrom)   z (angstrom)
      1      O    -2.04787392     2.05706765    -0.43178803
      2      O     0.99183985     2.90397065     0.58619707
      3      C     0.74248786     0.42728718     0.27930984
      4      C     0.39637585     1.87305634     0.30428397
      5      C    -0.54505447     0.06125279    -0.15444819
      6      C    -1.00263973     1.48545590    -0.16300908
      7      N    -1.12388724    -1.09749608    -0.45193226
      8      N     1.87464539    -0.26112183     0.49414795
      9      C    -2.45449180    -1.20932985    -1.07226453
     10      C     3.02922585     0.33069334     1.21066073
     11      C    -3.50133041    -1.93362496    -0.14617975
     12      C    -4.89660863    -1.76444202    -0.77854383
     13      H    -5.66564458    -2.15270705    -0.09620032
     14      H    -5.12530780    -0.70547949    -0.96179655
     15      H    -4.99955123    -2.30883821    -1.72421534
     16      C    -3.19692838    -3.43214898     0.02403179
     17      H    -3.27158893    -3.97957620    -0.92353727
     18      H    -3.92342340    -3.88439993     0.71376389
     19      H    -2.20042376    -3.60963413     0.44599825
     20      C    -3.51418211    -1.24456043     1.23490497
     21      H    -3.76196589    -0.17928832     1.13718957
     22      H    -4.27509728    -1.71120334     1.87430124
     23      H    -2.55589327    -1.31896753     1.75969376
     24      C     2.90641961     0.12371902     2.71594021
     25      C     3.12583216    -1.12238761     3.31191843
     26      C     2.94022988    -1.30168635     4.67780195
     27      C     2.53113794    -0.23700473     5.47677059
     28      C     2.29552207     1.00330106     4.89300978
     29      C     2.49095724     1.18352412     3.52665610
     30      H     3.44094134    -1.97201696     2.71234290
     31      H     3.12136241    -2.27903529     5.12253905
     32      H     2.38441373    -0.37703797     6.54514159
     33      H     1.95660909     1.83660530     5.50321959
     34      H     2.29204418     2.15236607     3.07333981
     35      H    -0.58102113    -1.94822740    -0.32531480
     36      H     1.77547881    -1.27380057     0.57649856
     37      C    -2.28828724    -1.79442234    -2.47749649
     38      H    -2.80121231    -0.17658049    -1.17506803
     39      H     2.96351365     1.40497922     1.01625736
     40      C     4.33302016    -0.19085542     0.61240911
     41      C     0.20112506    -2.74198631     2.50566558
     42      C    -0.15232497    -1.46446029     3.06579752
     43      C    -0.58091755    -1.37569682     4.34567156
     44      O     0.59895775    -2.92024968     1.34947807
     45      H     0.08841976    -3.61982248     3.17940555
     46      H    -0.03393336    -0.59459167     2.43666348
     47      H    -0.63268330    -2.30595451     4.91557638
     48      C    -0.97599134    -0.19105316     5.08367821
     49      C    -1.12677354     1.07532442     4.49045871
     50      C    -1.51043466     2.16951696     5.24944729
     51      C    -1.74342722     2.03420562     6.61862090
     52      C    -1.60733918     0.78628499     7.22191280
     53      C    -1.23609258    -0.31367719     6.46018328
     54      H    -0.96274368     1.21334529     3.42883598
     55      H    -1.63206105     3.13728666     4.76636069
     56      H    -2.04411915     2.89793714     7.20852228
     57      H    -1.79931499     0.66882852     8.28629885
     58      H    -1.13593669    -1.28652687     6.93774301
     59      H    -1.59936258    -1.15892944    -3.04813007
     60      H    -3.24017737    -1.82699500    -3.01709271
     61      H    -1.87251048    -2.80992633    -2.45732975
     62      H     5.18431859     0.25440823     1.14060951
     63      H     4.38675365     0.07472591    -0.45015543
     64      H     4.42220974    -1.28137786     0.69614578
 
Total System Charge             0.00000
Bonding info available!
 
 *** GO1_GOStep5 ***

 Energy gradients wrt nuclear displacements
 ==========================================

     Atom      Cartesian (a.u./angstrom)
                 X         Y         Z
 ----------------------------------------
     1 O    -0.000679  0.001356 -0.000727
     2 O    -0.000014  0.001284 -0.000891
     3 C     0.000472 -0.010218  0.004432
     4 C    -0.003283  0.005306  0.000657
     5 C    -0.000871 -0.011826  0.003466
     6 C    -0.000600  0.005530  0.000662
     7 N     0.005375  0.005856  0.001957
     8 N    -0.004394  0.002471 -0.004669
     9 C     0.001617 -0.001619 -0.004076
    10 C     0.004473 -0.001580  0.002557
    11 C    -0.004485 -0.002831  0.001877
    12 C     0.003865  0.000318 -0.001614
    13 H    -0.001639 -0.000379  0.000986
    14 H    -0.000934  0.001743 -0.000048
    15 H    -0.000999 -0.000653 -0.001350
    16 C    -0.000057  0.002806 -0.001550
    17 H    -0.000643 -0.001520 -0.000923
    18 H    -0.001108 -0.001482  0.001103
    19 H     0.001260 -0.000867  0.000918
    20 C     0.001283 -0.000932  0.000047
    21 H    -0.000841  0.001769  0.000040
    22 H    -0.000100 -0.001022  0.001018
    23 H     0.004742  0.001741  0.005240
    24 C     0.001910  0.003088  0.001099
    25 C    -0.005478 -0.000066  0.000809
    26 C    -0.005129 -0.000947 -0.002868
    27 C    -0.001140  0.000552  0.001270
    28 C    -0.006382 -0.001324 -0.001342
    29 C     0.001154 -0.001083  0.000635
    30 H     0.000052 -0.000901  0.000114
    31 H    -0.000143 -0.000865  0.000288
    32 H     0.000186 -0.000210  0.000633
    33 H    -0.000108  0.000289  0.000257
    34 H     0.000134  0.000275 -0.000427
    35 H     0.001516 -0.002549 -0.000402
    36 H     0.000831 -0.003273 -0.000136
    37 C    -0.001114  0.001241  0.003037
    38 H     0.000408 -0.000183  0.000093
    39 H    -0.001012 -0.000336  0.000029
    40 C    -0.002544  0.002165  0.000165
    41 C    -0.000695  0.007284  0.008795
    42 C     0.003651 -0.001286 -0.010056
    43 C     0.001417  0.001179 -0.001109
    44 O    -0.001314  0.005159 -0.006116
    45 H     0.000213 -0.001599 -0.001541
    46 H     0.001984 -0.000002 -0.001271
    47 H    -0.000203 -0.000655  0.000296
    48 C     0.004259  0.000278  0.000731
    49 C     0.003823 -0.000268  0.000197
    50 C     0.000022 -0.000519  0.000498
    51 C     0.000762 -0.000302  0.000241
    52 C    -0.000036  0.000217 -0.000119
    53 C     0.000149  0.000602 -0.001082
    54 H    -0.000701  0.001041  0.000367
    55 H    -0.000180  0.000595 -0.000782
    56 H    -0.000433  0.000707  0.000327
    57 H    -0.000262 -0.000150  0.000576
    58 H    -0.000066 -0.000588  0.000500
    59 H     0.000904  0.000977 -0.000707
    60 H    -0.001143 -0.000419 -0.001031
    61 H     0.000254 -0.001662 -0.000824
    62 H     0.000966 -0.000020  0.001075
    63 H     0.000007  0.000049 -0.001491
    64 H     0.001044 -0.001743  0.000160
 ----------------------------------------
 Mulliken charges used for AMS results%charges...

 dE(predicted):    -0.12161E-02, dE(actual):    -0.17591E-02, Trust radius:    1.000000, all in a.u.
 
----------------------------------------------------------------------
Geometry Convergence after Step   5       (Hartree/Angstrom,Angstrom)
----------------------------------------------------------------------
current energy                              -13.90869051 Hartree
energy change                      -0.00175914     0.00064000    F
constrained gradient max            0.01182927     0.00100000    F
constrained gradient rms            0.00252685     0.00066667    F
gradient max                        0.01182927
gradient rms                        0.00252685
cart. step max                      0.05945094     0.01000000    F
cart. step rms                      0.02021483     0.00666667    F
 
 
--------
Geometry
--------
Formula: C27H32N2O3
Atoms
  Index Symbol   x (angstrom)   y (angstrom)   z (angstrom)
      1      O    -2.02175748     2.07919846    -0.46401775
      2      O     1.03746011     2.90175349     0.53275147
      3      C     0.74724029     0.42562235     0.27486635
      4      C     0.42379930     1.87595487     0.27135709
      5      C    -0.54557470     0.06945527    -0.15116952
      6      C    -0.98320933     1.49948479    -0.18690520
      7      N    -1.13893617    -1.08877155    -0.42561494
      8      N     1.86920126    -0.27463886     0.50114110
      9      C    -2.46238639    -1.19413680    -1.05974695
     10      C     3.03241027     0.31420951     1.20257605
     11      C    -3.51213651    -1.94204155    -0.15708824
     12      C    -4.90653857    -1.77203302    -0.79098742
     13      H    -5.67445431    -2.18016044    -0.11968723
     14      H    -5.14330276    -0.71222799    -0.95533105
     15      H    -5.00037493    -2.29922615    -1.74677404
     16      C    -3.19786532    -3.44076957    -0.01271925
     17      H    -3.25746031    -3.96935423    -0.97149375
     18      H    -3.92787572    -3.91117097     0.66022948
     19      H    -2.20468289    -3.61855604     0.41654183
     20      C    -3.54262426    -1.28470244     1.23736971
     21      H    -3.78907470    -0.21768657     1.16134822
     22      H    -4.31193989    -1.76491832     1.85618473
     23      H    -2.59108583    -1.37313157     1.77130536
     24      C     2.91147647     0.12076283     2.70887298
     25      C     3.13785615    -1.11794063     3.31735660
     26      C     2.95724292    -1.28212914     4.68545847
     27      C     2.54364191    -0.21081501     5.47325188
     28      C     2.30196161     1.02238650     4.87707485
     29      C     2.49258804     1.18794814     3.50842770
     30      H     3.45539525    -1.97208539     2.72581158
     31      H     3.14530531    -2.25323244     5.14041441
     32      H     2.39864740    -0.33948598     6.54311597
     33      H     1.95916044     1.86066220     5.47813593
     34      H     2.28591820     2.15043526     3.04478676
     35      H    -0.60154845    -1.94167896    -0.29112386
     36      H     1.75819830    -1.28469099     0.59260981
     37      C    -2.27496536    -1.75194192    -2.47346618
     38      H    -2.81423248    -0.16169558    -1.14756432
     39      H     2.97409314     1.38733055     0.99917590
     40      C     4.32940630    -0.22237438     0.60323514
     41      C     0.19959743    -2.74152592     2.52807345
     42      C    -0.15159592    -1.45774638     3.07976464
     43      C    -0.57086610    -1.36796179     4.36240569
     44      O     0.58843487    -2.93573359     1.37159491
     45      H     0.09066929    -3.60970977     3.21485179
     46      H    -0.03898058    -0.58974595     2.44661339
     47      H    -0.61187497    -2.29776308     4.93364105
     48      C    -0.97237190    -0.18687941     5.10128674
     49      C    -1.13741264     1.07716119     4.50722350
     50      C    -1.53027338     2.16794616     5.26656245
     51      C    -1.75970928     2.03054355     6.63623404
     52      C    -1.60600323     0.78530495     7.24096377
     53      C    -1.22625951    -0.31144241     6.47893918
     54      H    -0.97469151     1.21450970     3.44485525
     55      H    -1.65970058     3.13515667     4.78478302
     56      H    -2.06275105     2.89243219     7.22727636
     57      H    -1.78874976     0.66788640     8.30684921
     58      H    -1.11279577    -1.28246554     6.95684699
     59      H    -1.58734859    -1.09947850    -3.02562756
     60      H    -3.22019755    -1.78565373    -3.02383538
     61      H    -1.84738119    -2.76235849    -2.46540112
     62      H     5.18679743     0.22138521     1.12238982
     63      H     4.37989539     0.03295642    -0.46164254
     64      H     4.40987720    -1.31240433     0.69654279
 
Total System Charge             0.00000
Bonding info available!
 
 *** GO1_GOStep6 ***

 Energy gradients wrt nuclear displacements
 ==========================================

     Atom      Cartesian (a.u./angstrom)
                 X         Y         Z
 ----------------------------------------
     1 O    -0.000882  0.001263 -0.000596
     2 O     0.000601  0.001406 -0.000524
     3 C     0.000435 -0.009600  0.005264
     4 C    -0.002462  0.005251  0.000272
     5 C    -0.001036 -0.010944  0.003706
     6 C    -0.000580  0.005583 -0.000207
     7 N     0.004328  0.003488 -0.000074
     8 N    -0.003669  0.001814 -0.002982
     9 C     0.001909 -0.001322 -0.003206
    10 C     0.004147 -0.001550  0.002006
    11 C    -0.003554 -0.001818  0.001266
    12 C     0.002782  0.000464 -0.000349
    13 H    -0.001552 -0.000345  0.000757
    14 H    -0.000851  0.001218  0.000048
    15 H    -0.000735 -0.000520 -0.000632
    16 C    -0.000266  0.002862 -0.001224
    17 H    -0.000525 -0.001097 -0.000573
    18 H    -0.000877 -0.001143  0.000856
    19 H     0.001082 -0.000692  0.000764
    20 C     0.000492 -0.001367 -0.000751
    21 H    -0.000828  0.001159  0.000007
    22 H    -0.000185 -0.000959  0.000966
    23 H     0.003854  0.001019  0.004616
    24 C     0.001087  0.002155  0.000385
    25 C    -0.005443 -0.000683  0.001085
    26 C    -0.004585 -0.000898 -0.003229
    27 C    -0.001475  0.000501  0.001089
    28 C    -0.005572 -0.001041 -0.001103
    29 C     0.001233 -0.000896  0.000812
    30 H    -0.000067 -0.000743  0.000049
    31 H    -0.000009 -0.000657  0.000053
    32 H     0.000049 -0.000050  0.000411
    33 H    -0.000196  0.000327  0.000044
    34 H    -0.000340  0.000399 -0.000397
    35 H     0.001544 -0.002284 -0.000155
    36 H     0.000371 -0.002265 -0.000419
    37 C    -0.000015  0.001359  0.003155
    38 H     0.000194 -0.000330 -0.000036
    39 H    -0.001006 -0.000169  0.000106
    40 C    -0.002212  0.002200  0.000049
    41 C    -0.000203  0.006411  0.008060
    42 C     0.002667  0.000295 -0.008999
    43 C     0.001863  0.001347 -0.001229
    44 O    -0.001165  0.003794 -0.006009
    45 H     0.000014 -0.001279 -0.001191
    46 H     0.002361  0.000409 -0.001125
    47 H    -0.000061 -0.000580  0.000209
    48 C     0.004407  0.000055  0.000396
    49 C     0.003534 -0.000385  0.000370
    50 C     0.000012 -0.000290  0.000379
    51 C    -0.000506 -0.000411  0.000086
    52 C     0.000083  0.000154  0.000132
    53 C    -0.000067  0.000269 -0.000771
    54 H    -0.000426  0.000829 -0.000111
    55 H     0.000079  0.000497 -0.000557
    56 H     0.000019  0.000586  0.000305
    57 H     0.000052 -0.000121  0.000507
    58 H    -0.000064 -0.000423  0.000410
    59 H     0.000770  0.000720 -0.000817
    60 H    -0.000569 -0.000231 -0.000621
    61 H     0.000300 -0.001239 -0.000759
    62 H     0.000876 -0.000076  0.000817
    63 H     0.000056 -0.000054 -0.001062
    64 H     0.000783 -0.001369  0.000272
 ----------------------------------------
 Mulliken charges used for AMS results%charges...

 dE(predicted):    -0.41721E-03, dE(actual):    -0.71662E-03, Trust radius:    1.000000, all in a.u.
 
----------------------------------------------------------------------
Geometry Convergence after Step   6       (Hartree/Angstrom,Angstrom)
----------------------------------------------------------------------
current energy                              -13.90940713 Hartree
energy change                      -0.00071662     0.00064000    F
constrained gradient max            0.01094598     0.00100000    F
constrained gradient rms            0.00224781     0.00066667    F
gradient max                        0.01094598
gradient rms                        0.00224781
cart. step max                      0.21153127     0.01000000    F
cart. step rms                      0.07051050     0.00666667    F
 
 
--------
Geometry
--------
Formula: C27H32N2O3
Atoms
  Index Symbol   x (angstrom)   y (angstrom)   z (angstrom)
      1      O    -1.94575515     2.13987016    -0.55020451
      2      O     1.17735562     2.88116947     0.35785080
      3      C     0.75891593     0.41748080     0.26173146
      4      C     0.50777077     1.87492588     0.16690700
      5      C    -0.55213500     0.09455463    -0.13171887
      6      C    -0.92729159     1.53566338    -0.25216630
      7      N    -1.19594305    -1.05699226    -0.32107161
      8      N     1.84667283    -0.32035320     0.52551378
      9      C    -2.49357371    -1.13787641    -1.00539972
     10      C     3.04009740     0.25414002     1.17487041
     11      C    -3.54507777    -1.97011372    -0.19136476
     12      C    -4.92481871    -1.79198310    -0.85450142
     13      H    -5.69753575    -2.26834666    -0.23859960
     14      H    -5.18539798    -0.73093208    -0.95320864
     15      H    -4.97273161    -2.25162502    -1.84691203
     16      C    -3.19451993    -3.46682139    -0.14128978
     17      H    -3.19524881    -3.92224926    -1.13752522
     18      H    -3.93814280    -4.00163921     0.46267705
     19      H    -2.21665658    -3.65018069     0.31812000
     20      C    -3.63136945    -1.41876216     1.24129647
     21      H    -3.86238675    -0.34642698     1.23831201
     22      H    -4.43350455    -1.93138885     1.78720024
     23      H    -2.70559555    -1.56462684     1.80442948
     24      C     2.93305286     0.10978416     2.68550794
     25      C     3.19103618    -1.09908678     3.33954521
     26      C     3.02823291    -1.20944884     4.71603521
     27      C     2.59299094    -0.11728154     5.46218865
     28      C     2.32698767     1.08811663     4.82105913
     29      C     2.50226548     1.20168125     3.44532407
     30      H     3.52253166    -1.96727581     2.77796860
     31      H     3.24379377    -2.15578793     5.20839275
     32      H     2.45538398    -0.20523248     6.53678647
     33      H     1.97023228     1.94255672     5.39007830
     34      H     2.28205247     2.14383983     2.94709060
     35      H    -0.67594399    -1.91646898    -0.16118300
     36      H     1.69674148    -1.32040596     0.65138005
     37      C    -2.25693307    -1.59584098    -2.44899232
     38      H    -2.86495004    -0.10866326    -1.03354043
     39      H     3.01112694     1.32176351     0.93891854
     40      C     4.30913076    -0.33801248     0.56782266
     41      C     0.20626381    -2.74795788     2.61021384
     42      C    -0.14053915    -1.44544342     3.13590150
     43      C    -0.52779624    -1.34916750     4.42842468
     44      O     0.55779465    -2.99234032     1.45238293
     45      H     0.12116293    -3.58285279     3.34049267
     46      H    -0.05621042    -0.58480461     2.48731399
     47      H    -0.52981311    -2.27413359     5.00787272
     48      C    -0.95617386    -0.17691074     5.16382827
     49      C    -1.17365284     1.07398992     4.55953578
     50      C    -1.59973026     2.15705477     5.31202198
     51      C    -1.80792046     2.02420183     6.68563963
     52      C    -1.60544340     0.79071502     7.30031047
     53      C    -1.19031668    -0.29818827     6.54570233
     54      H    -1.01807652     1.20146496     3.49406113
     55      H    -1.77506115     3.11365881     4.82469704
     56      H    -2.14666425     2.87672253     7.26996155
     57      H    -1.78010185     0.67613452     8.36749088
     58      H    -1.03600733    -1.25977386     7.03010095
     59      H    -1.57996073    -0.88794723    -2.94024003
     60      H    -3.18615915    -1.62632773    -3.02506192
     61      H    -1.79284932    -2.58818009    -2.48920696
     62      H     5.18950445     0.09594610     1.05451215
     63      H     4.34478739    -0.11373249    -0.50375953
     64      H     4.35738783    -1.42583024     0.68937639
 
Total System Charge             0.00000
Bonding info available!
 
 *** GO1_GOStep7 ***

 Energy gradients wrt nuclear displacements
 ==========================================

     Atom      Cartesian (a.u./angstrom)
                 X         Y         Z
 ----------------------------------------
     1 O    -0.001765  0.000589 -0.000425
     2 O     0.001937  0.001502  0.000088
     3 C    -0.000252 -0.004745  0.006518
     4 C     0.001225  0.002435 -0.000834
     5 C    -0.002854 -0.007533  0.004069
     6 C    -0.000805  0.004288 -0.001937
     7 N     0.000959 -0.001584 -0.001602
     8 N    -0.000468  0.000326  0.001767
     9 C     0.003100  0.001834 -0.000116
    10 C     0.001410 -0.000648  0.000444
    11 C    -0.002071 -0.001125  0.002891
    12 C     0.000845  0.001230  0.000103
    13 H    -0.000116 -0.000043 -0.000041
    14 H    -0.000376 -0.000166 -0.000057
    15 H    -0.000207 -0.000143 -0.000020
    16 C    -0.000646  0.001459 -0.000357
    17 H     0.000133 -0.000044  0.000064
    18 H     0.000267  0.000052 -0.000035
    19 H     0.000357 -0.000228  0.000091
    20 C     0.001456 -0.001009 -0.003071
    21 H    -0.000573 -0.000314  0.000142
    22 H     0.000096 -0.000345  0.000108
    23 H     0.001500 -0.000580  0.002826
    24 C    -0.001404 -0.000154 -0.001606
    25 C    -0.004597 -0.001988  0.000072
    26 C    -0.002876 -0.000786 -0.001886
    27 C    -0.002632  0.000253  0.000594
    28 C    -0.003162 -0.000623  0.000240
    29 C     0.000571 -0.000495 -0.000053
    30 H    -0.000289 -0.000020 -0.000217
    31 H     0.000206 -0.000157 -0.000278
    32 H    -0.000209  0.000308 -0.000149
    33 H    -0.000485  0.000183 -0.000418
    34 H    -0.000303  0.000618 -0.000261
    35 H     0.002312 -0.001599  0.001231
    36 H    -0.000854 -0.000163 -0.000860
    37 C    -0.000586  0.000402  0.001888
    38 H    -0.000244 -0.000211 -0.000305
    39 H    -0.000512 -0.000158  0.000174
    40 C    -0.001164  0.001407 -0.000057
    41 C     0.001331  0.002863  0.003370
    42 C     0.000491  0.005295 -0.006982
    43 C     0.003109  0.001146 -0.000114
    44 O    -0.001126 -0.000539 -0.004471
    45 H    -0.000574 -0.000069  0.000195
    46 H     0.003194  0.001699 -0.000816
    47 H     0.000163 -0.000302 -0.000173
    48 C     0.003440 -0.000967 -0.000863
    49 C     0.002083 -0.000364  0.000958
    50 C    -0.000601  0.000185 -0.000074
    51 C     0.001791  0.000617  0.000595
    52 C    -0.000562  0.000020  0.000585
    53 C     0.000106 -0.000368  0.000304
    54 H     0.000775 -0.000053 -0.000914
    55 H    -0.000437  0.000055 -0.000003
    56 H    -0.000545 -0.000065 -0.000141
    57 H    -0.000320 -0.000149  0.000008
    58 H     0.000130  0.000058  0.000027
    59 H     0.000003  0.000009 -0.000219
    60 H    -0.000227 -0.000410 -0.000357
    61 H     0.000207 -0.000301 -0.000083
    62 H     0.000316 -0.000094  0.000048
    63 H     0.000169 -0.000211  0.000018
    64 H     0.000162 -0.000081  0.000373
 ----------------------------------------
 Mulliken charges used for AMS results%charges...

 dE(predicted):    -0.17104E-02, dE(actual):    -0.16533E-02, Trust radius:    1.000000, all in a.u.
 
----------------------------------------------------------------------
Geometry Convergence after Step   7       (Hartree/Angstrom,Angstrom)
----------------------------------------------------------------------
current energy                              -13.91106038 Hartree
energy change                      -0.00165325     0.00064000    F
constrained gradient max            0.00752375     0.00100000    F
constrained gradient rms            0.00162693     0.00066667    F
gradient max                        0.00752375
gradient rms                        0.00162693
cart. step max                      0.17154254     0.01000000    F
cart. step rms                      0.05004913     0.00666667    F
 
 
--------
Geometry
--------
Formula: C27H32N2O3
Atoms
  Index Symbol   x (angstrom)   y (angstrom)   z (angstrom)
      1      O    -1.90518790     2.17474598    -0.57805913
      2      O     1.24800034     2.86161893     0.27446221
      3      C     0.76434381     0.41133865     0.25343265
      4      C     0.55251897     1.86828794     0.11631167
      5      C    -0.55866271     0.11151030    -0.11594944
      6      C    -0.89878211     1.55336994    -0.27717201
      7      N    -1.23940105    -1.03020189    -0.24391625
      8      N     1.83023841    -0.34901772     0.53909098
      9      C    -2.51897657    -1.09604734    -0.96387660
     10      C     3.04513650     0.20811870     1.15620594
     11      C    -3.56601251    -1.98768959    -0.21651495
     12      C    -4.93855018    -1.81115161    -0.89565872
     13      H    -5.70891831    -2.33340292    -0.31642442
     14      H    -5.22057873    -0.75286724    -0.95156550
     15      H    -4.95696701    -2.22484449    -1.90858048
     16      C    -3.18893680    -3.47989226    -0.22500934
     17      H    -3.15022006    -3.88701368    -1.24078080
     18      H    -3.94111653    -4.05339053     0.33015716
     19      H    -2.22334016    -3.66909412     0.25615660
     20      C    -3.69025234    -1.50748749     1.23698002
     21      H    -3.90166734    -0.43227333     1.28311732
     22      H    -4.51772028    -2.03086395     1.73256164
     23      H    -2.78338958    -1.69993336     1.81568908
     24      C     2.95006529     0.10019917     2.67060191
     25      C     3.23742369    -1.08266076     3.35891370
     26      C     3.08479078    -1.15324065     4.74012427
     27      C     2.62677116    -0.04921211     5.45357558
     28      C     2.34073796     1.13343255     4.77952996
     29      C     2.50673037     1.20842346     3.40022128
     30      H     3.58649341    -1.95900557     2.82192336
     31      H     3.32343556    -2.07840843     5.26097525
     32      H     2.49429210    -0.10765535     6.53087932
     33      H     1.97281231     1.99812732     5.32542023
     34      H     2.27327863     2.13283518     2.87608095
     35      H    -0.73062918    -1.89361087    -0.06925292
     36      H     1.65511101    -1.34115020     0.69023928
     37      C    -2.23922006    -1.46564457    -2.42728607
     38      H    -2.90705828    -0.07283126    -0.94345742
     39      H     3.04304857     1.27066357     0.89700233
     40      C     4.28993931    -0.42969680     0.54273971
     41      C     0.22214187    -2.76346727     2.66591128
     42      C    -0.12811926    -1.45286816     3.17861964
     43      C    -0.49517643    -1.34727422     4.47717054
     44      O     0.54237117    -3.03150389     1.50536188
     45      H     0.16805584    -3.57906804     3.42068131
     46      H    -0.07408867    -0.59931143     2.51691217
     47      H    -0.46734339    -2.26402642     5.06824114
     48      C    -0.94899373    -0.17680714     5.20097270
     49      C    -1.20579828     1.05889790     4.58061766
     50      C    -1.65537318     2.14125523     5.31959332
     51      C    -1.85994508     2.01946330     6.69479095
     52      C    -1.60844991     0.80416353     7.32748867
     53      C    -1.17052462    -0.28471363     6.58606782
     54      H    -1.05734776     1.17252561     3.51292542
     55      H    -1.84635220     3.08998067     4.82321147
     56      H    -2.20014044     2.87556844     7.27276873
     57      H    -1.75784513     0.70554107     8.39999520
     58      H    -0.98334242    -1.23368799     7.08326214
     59      H    -1.56811691    -0.71640469    -2.86070482
     60      H    -3.15308264    -1.48331967    -3.02694664
     61      H    -1.74974682    -2.44243534    -2.50916987
     62      H     5.18860364    -0.01237166     1.00955528
     63      H     4.31601169    -0.22020417    -0.53194941
     64      H     4.30830661    -1.51629437     0.67663612
 
Total System Charge             0.00000
Bonding info available!
 
 *** GO1_GOStep8 ***

 Energy gradients wrt nuclear displacements
 ==========================================

     Atom      Cartesian (a.u./angstrom)
                 X         Y         Z
 ----------------------------------------
     1 O    -0.000429 -0.000151  0.000037
     2 O     0.000630  0.000451  0.000005
     3 C    -0.000787 -0.000307  0.005143
     4 C     0.004619 -0.000033 -0.000302
     5 C    -0.002592 -0.003081  0.002732
     6 C    -0.002502  0.001967 -0.002418
     7 N    -0.001669 -0.004501 -0.002017
     8 N     0.001497  0.000378  0.003748
     9 C     0.001516  0.002849  0.002326
    10 C    -0.001111  0.000117 -0.000189
    11 C    -0.000330  0.000621  0.003036
    12 C    -0.001222  0.000194  0.001330
    13 H     0.000495  0.000132 -0.000344
    14 H     0.000165 -0.000602 -0.000182
    15 H    -0.000160  0.000014  0.000609
    16 C    -0.000852  0.000022  0.000656
    17 H     0.000290  0.000180  0.000513
    18 H     0.000513  0.000426 -0.000162
    19 H    -0.000476 -0.000061 -0.000318
    20 C     0.001960 -0.001250 -0.004847
    21 H    -0.000252 -0.000375  0.000086
    22 H    -0.000356  0.000010  0.000019
    23 H     0.000537 -0.001327  0.001264
    24 C    -0.002710 -0.001447 -0.002142
    25 C    -0.003954 -0.002682 -0.000408
    26 C    -0.001582 -0.000468 -0.000546
    27 C    -0.003820 -0.000109 -0.000520
    28 C    -0.001562 -0.000279  0.000900
    29 C     0.000324  0.000313 -0.000446
    30 H    -0.000353  0.000396 -0.000141
    31 H     0.000260  0.000060 -0.000176
    32 H    -0.000266  0.000341 -0.000242
    33 H    -0.000475  0.000025 -0.000403
    34 H    -0.000160  0.000355 -0.000069
    35 H     0.002931 -0.000664  0.002464
    36 H    -0.001346  0.000526 -0.000473
    37 C     0.000548  0.000878 -0.000578
    38 H     0.000415 -0.000372 -0.000063
    39 H    -0.000081 -0.000349  0.000137
    40 C    -0.000189  0.000088 -0.000053
    41 C     0.001831 -0.000202 -0.000998
    42 C     0.000368  0.007360 -0.006580
    43 C     0.004032  0.000506  0.001688
    44 O    -0.001310 -0.002361 -0.002413
    45 H    -0.000671  0.000767  0.000883
    46 H     0.003215  0.002372 -0.000777
    47 H     0.000072 -0.000089 -0.000413
    48 C     0.003775 -0.000789 -0.000858
    49 C     0.000963  0.000440  0.000954
    50 C     0.000288  0.000444 -0.000435
    51 C    -0.003452 -0.000640 -0.000531
    52 C     0.000710  0.000118  0.000664
    53 C    -0.000833 -0.000650  0.000669
    54 H     0.000551 -0.000779 -0.000357
    55 H     0.000546  0.000281  0.000436
    56 H     0.000977  0.000237  0.000100
    57 H     0.000690  0.000235  0.000091
    58 H    -0.000055  0.000076 -0.000227
    59 H    -0.000236 -0.000417 -0.000124
    60 H     0.000585 -0.000248 -0.000105
    61 H     0.000315  0.000438  0.000292
    62 H    -0.000057  0.000079 -0.000274
    63 H     0.000171 -0.000098  0.000274
    64 H     0.000062  0.000632  0.000078
 ----------------------------------------
 Mulliken charges used for AMS results%charges...

 dE(predicted):    -0.60895E-03, dE(actual):    -0.77327E-03, Trust radius:    1.000000, all in a.u.
 
----------------------------------------------------------------------
Geometry Convergence after Step   8       (Hartree/Angstrom,Angstrom)
----------------------------------------------------------------------
current energy                              -13.91183365 Hartree
energy change                      -0.00077327     0.00064000    F
constrained gradient max            0.00735431     0.00100000    F
constrained gradient rms            0.00156363     0.00066667    F
gradient max                        0.00735431
gradient rms                        0.00156363
cart. step max                      0.12938531     0.01000000    F
cart. step rms                      0.04112410     0.00666667    F
 
 
--------
Geometry
--------
Formula: C27H32N2O3
Atoms
  Index Symbol   x (angstrom)   y (angstrom)   z (angstrom)
      1      O    -1.87808590     2.21042431    -0.56460017
      2      O     1.29291303     2.85096223     0.25009337
      3      C     0.77027332     0.40957615     0.25031350
      4      C     0.58244345     1.86679866     0.10158298
      5      C    -0.56259384     0.13086897    -0.10006556
      6      C    -0.87926063     1.57208158    -0.27354433
      7      N    -1.27486490    -0.99807552    -0.18530355
      8      N     1.82134935    -0.36759386     0.54435178
      9      C    -2.54508000    -1.05746638    -0.92726755
     10      C     3.05509361     0.16784818     1.14075823
     11      C    -3.58100925    -1.99593315    -0.23081112
     12      C    -4.94557555    -1.82816580    -0.92895410
     13      H    -5.71238630    -2.39241854    -0.38562899
     14      H    -5.25319808    -0.77555230    -0.94960996
     15      H    -4.93263768    -2.20111159    -1.95765193
     16      C    -3.16967160    -3.47917125    -0.28936304
     17      H    -3.09832387    -3.84335254    -1.31962418
     18      H    -3.92273967    -4.08942752     0.22414010
     19      H    -2.21217979    -3.66807914     0.20764613
     20      C    -3.73819880    -1.57453885     1.23901877
     21      H    -3.93918473    -0.50004972     1.32718636
     22      H    -4.58013204    -2.11005193     1.69580700
     23      H    -2.84262067    -1.80108151     1.82280035
     24      C     2.96905065     0.09082102     2.65884730
     25      C     3.28339409    -1.06797452     3.37491282
     26      C     3.13676364    -1.10664829     4.75852969
     27      C     2.65829409     0.00493858     5.44531586
     28      C     2.35424364     1.16766514     4.74470290
     29      C     2.51206790     1.21062550     3.36334912
     30      H     3.65063234    -1.94950320     2.85907311
     31      H     3.39525759    -2.01319810     5.30214524
     32      H     2.53049639    -0.02998016     6.52444076
     33      H     1.97768255     2.04017031     5.27211401
     34      H     2.26250558     2.11784947     2.81773116
     35      H    -0.77639622    -1.86581319    -0.00318699
     36      H     1.62695444    -1.35303885     0.71406558
     37      C    -2.24486165    -1.36238142    -2.40289962
     38      H    -2.95176266    -0.04268190    -0.87012474
     39      H     3.08160121     1.22540509     0.86280735
     40      C     4.27598217    -0.51541863     0.52530693
     41      C     0.24305509    -2.78144726     2.70787091
     42      C    -0.11364942    -1.46964185     3.21644962
     43      C    -0.46607224    -1.35226685     4.51816145
     44      O     0.53222573    -3.05570414     1.54077763
     45      H     0.22357628    -3.58878475     3.47339468
     46      H    -0.09130376    -0.62386596     2.54259892
     47      H    -0.41251203    -2.25807573     5.12393648
     48      C    -0.94254405    -0.17936162     5.22491891
     49      C    -1.23091582     1.03888627     4.58375671
     50      C    -1.69982771     2.12439986     5.30510650
     51      C    -1.88785442     2.02511808     6.68458247
     52      C    -1.61834695     0.82341557     7.33550896
     53      C    -1.15528723    -0.26741181     6.61260879
     54      H    -1.09103791     1.13625687     3.51372793
     55      H    -1.92311387     3.05651223     4.79108405
     56      H    -2.25900451     2.87879653     7.24692179
     57      H    -1.77550602     0.73654363     8.40796461
     58      H    -0.94794065    -1.20382463     7.12545441
     59      H    -1.57941569    -0.58701938    -2.79733348
     60      H    -3.15293895    -1.36461722    -3.01120496
     61      H    -1.74249373    -2.32882603    -2.51941431
     62      H     5.19127562    -0.12215537     0.98058004
     63      H     4.29903496    -0.31517513    -0.55135570
     64      H     4.25964648    -1.60105737     0.66640010
 
Total System Charge             0.00000
Bonding info available!
 
 *** GO1_GOStep9 ***

 Energy gradients wrt nuclear displacements
 ==========================================

     Atom      Cartesian (a.u./angstrom)
                 X         Y         Z
 ----------------------------------------
     1 O    -0.000168  0.000637  0.000066
     2 O     0.000402  0.001165  0.000233
     3 C    -0.000992  0.002040  0.003155
     4 C     0.005387 -0.003078  0.000541
     5 C    -0.000788  0.000570  0.001054
     6 C    -0.002788 -0.001846 -0.001795
     7 N    -0.002663 -0.004423 -0.000815
     8 N     0.002361  0.001184  0.004005
     9 C    -0.000479  0.001307  0.002962
    10 C    -0.002523  0.000120 -0.000833
    11 C     0.000757  0.002351  0.002343
    12 C    -0.001707 -0.000710  0.001007
    13 H     0.000497  0.000165 -0.000238
    14 H     0.000370 -0.000393 -0.000327
    15 H     0.000107  0.000048  0.000380
    16 C     0.000205 -0.000437  0.000370
    17 H     0.000383  0.000204  0.000109
    18 H     0.000149  0.000448 -0.000045
    19 H    -0.000672 -0.000008 -0.000406
    20 C     0.001024 -0.000689 -0.003568
    21 H     0.000002 -0.000217  0.000298
    22 H    -0.000894  0.000200  0.000162
    23 H     0.000184 -0.001781 -0.000362
    24 C    -0.003190 -0.002326 -0.001524
    25 C    -0.003493 -0.002616 -0.000245
    26 C    -0.000745  0.000099  0.000022
    27 C    -0.004675 -0.000748 -0.001525
    28 C    -0.000452  0.000347  0.000986
    29 C     0.000250  0.000923 -0.000384
    30 H    -0.000300  0.000439 -0.000065
    31 H     0.000269  0.000124 -0.000014
    32 H    -0.000263  0.000249 -0.000060
    33 H    -0.000290  0.000011 -0.000192
    34 H    -0.000308  0.000132 -0.000052
    35 H     0.002956  0.000209  0.003247
    36 H    -0.001377  0.000916  0.000169
    37 C     0.000080  0.000519 -0.001877
    38 H     0.000385 -0.000671  0.000121
    39 H     0.000241 -0.000385  0.000112
    40 C     0.000845 -0.000922  0.000010
    41 C     0.001912 -0.001766 -0.002283
    42 C     0.001017  0.007589 -0.005366
    43 C     0.004531  0.000164  0.002194
    44 O    -0.001217 -0.002927 -0.002396
    45 H    -0.000590  0.000945  0.001270
    46 H     0.002771  0.002625 -0.000717
    47 H    -0.000007  0.000095 -0.000424
    48 C     0.001931 -0.000610 -0.000698
    49 C     0.000369  0.000854  0.000724
    50 C    -0.000517 -0.000125 -0.001171
    51 C     0.001436  0.000637  0.000436
    52 C    -0.000692 -0.000330  0.000110
    53 C     0.000075 -0.000304  0.000847
    54 H     0.000873 -0.000730  0.000215
    55 H    -0.000244  0.000056  0.000226
    56 H    -0.000305 -0.000148 -0.000031
    57 H    -0.000244  0.000046 -0.000046
    58 H     0.000122  0.000091 -0.000145
    59 H    -0.000180 -0.000356 -0.000100
    60 H     0.000508 -0.000243  0.000111
    61 H     0.000211  0.000271  0.000538
    62 H    -0.000006  0.000238 -0.000306
    63 H     0.000058  0.000059  0.000143
    64 H     0.000099  0.000710 -0.000159
 ----------------------------------------
 Mulliken charges used for AMS results%charges...

 dE(predicted):    -0.45632E-03, dE(actual):    -0.63280E-03, Trust radius:    1.000000, all in a.u.
 
----------------------------------------------------------------------
Geometry Convergence after Step   9       (Hartree/Angstrom,Angstrom)
----------------------------------------------------------------------
current energy                              -13.91246645 Hartree
energy change                      -0.00063280     0.00064000    T
constrained gradient max            0.00758071     0.00100000    F
constrained gradient rms            0.00152197     0.00066667    F
gradient max                        0.00758071
gradient rms                        0.00152197
cart. step max                      0.08053495     0.01000000    F
cart. step rms                      0.02485027     0.00666667    F
 
 
--------
Geometry
--------
Formula: C27H32N2O3
Atoms
  Index Symbol   x (angstrom)   y (angstrom)   z (angstrom)
      1      O    -1.87758904     2.22986847    -0.51909360
      2      O     1.29579504     2.85531947     0.27781949
      3      C     0.77304060     0.41325797     0.25148760
      4      C     0.58564705     1.87282633     0.11932223
      5      C    -0.56509387     0.14488390    -0.08941125
      6      C    -0.87800847     1.58436832    -0.24610407
      7      N    -1.29477394    -0.97431143    -0.16102351
      8      N     1.82125368    -0.37009887     0.54029290
      9      C    -2.56322574    -1.03565430    -0.91257770
     10      C     3.06568155     0.14826379     1.13446975
     11      C    -3.59000357    -1.99688974    -0.23676101
     12      C    -4.94936346    -1.83460471    -0.94689733
     13      H    -5.71400841    -2.42166300    -0.42421248
     14      H    -5.27291954    -0.78595555    -0.94780083
     15      H    -4.91893446    -2.18438511    -1.98361006
     16      C    -3.15934016    -3.47500789    -0.31471649
     17      H    -3.07637740    -3.82248596    -1.35003908
     18      H    -3.90970758    -4.10221933     0.18295481
     19      H    -2.20370476    -3.66077503     0.18766724
     20      C    -3.76228683    -1.59863053     1.24201419
     21      H    -3.95358565    -0.52403992     1.34766869
     22      H    -4.61059984    -2.13656025     1.68302118
     23      H    -2.87112631    -1.84389457     1.82462778
     24      C     2.98626392     0.08802326     2.65661958
     25      C     3.32224956    -1.05463655     3.38812465
     26      C     3.17349331    -1.07867930     4.77381220
     27      C     2.67930301     0.03387551     5.44623035
     28      C     2.36116941     1.18398225     4.73069816
     29      C     2.51545706     1.21054952     3.34856737
     30      H     3.70726252    -1.93603848     2.88467602
     31      H     3.44498061    -1.97398148     5.32976128
     32      H     2.55399875     0.01045548     6.52622921
     33      H     1.97888587     2.05983630     5.24858192
     34      H     2.25673682     2.10811806     2.79229231
     35      H    -0.80351881    -1.84585722     0.01855862
     36      H     1.62011211    -1.35271968     0.71780664
     37      C    -2.25825939    -1.30880004    -2.39371238
     38      H    -2.98149555    -0.02612040    -0.83757725
     39      H     3.11505724     1.20262390     0.84681736
     40      C     4.26789804    -0.56936756     0.52010969
     41      C     0.26894951    -2.80131363     2.72763493
     42      C    -0.09917767    -1.49675139     3.24215176
     43      C    -0.44833743    -1.36795860     4.54357944
     44      O     0.53527205    -3.06119450     1.55245796
     45      H     0.28304846    -3.61450455     3.48713916
     46      H    -0.10625074    -0.65858817     2.55862981
     47      H    -0.37742492    -2.26232131     5.16471931
     48      C    -0.94315091    -0.18941578     5.23041066
     49      C    -1.25081824     1.01291579     4.56796942
     50      C    -1.73174291     2.10478735     5.27137348
     51      C    -1.92063842     2.02636713     6.65202278
     52      C    -1.62491521     0.84289848     7.32453893
     53      C    -1.15153264    -0.25520602     6.61952618
     54      H    -1.11990046     1.09551178     3.49598355
     55      H    -1.96473627     3.02517256     4.74063612
     56      H    -2.29536576     2.88722136     7.20112545
     57      H    -1.77194399     0.77503382     8.39992737
     58      H    -0.92934531    -1.17885345     7.14932755
     59      H    -1.59107063    -0.52472057    -2.76843374
     60      H    -3.16627424    -1.29265605    -3.00219245
     61      H    -1.75860947    -2.27362682    -2.53325440
     62      H     5.19433077    -0.20269032     0.97525685
     63      H     4.29564262    -0.37035966    -0.55696616
     64      H     4.21891286    -1.65460181     0.66064295
 
Total System Charge             0.00000
Bonding info available!
 
 *** GO1_GOStep10 ***

 Energy gradients wrt nuclear displacements
 ==========================================

[...]
                                    1.29%     1 S              -6.481  1.00    39 H
                                    1.28%     1 P:y            -5.338  0.67     8 C
                                    1.21%     1 S             -13.992  2.00    13 C
                                   -1.19%     2 S              13.069  0.00    30 C
                                   -1.12%     2 P:z            12.525  0.00    13 C
                                    1.11%     1 S              -6.481  1.00    38 H
                                   -1.02%     2 P:z            12.525  0.00    26 C
                                   -1.01%     2 P:y            12.525  0.00    28 C
       1.410  0.00   100 A         14.08%     1 S              -6.481  1.00    51 H
                                   12.89%     1 S              -6.481  1.00    55 H
                                   10.29%     1 S              -6.481  1.00    58 H
                                   10.00%     1 S              -6.481  1.00    43 H
                                    6.62%     1 S              -6.481  1.00    57 H
                                    5.66%     1 S              -6.481  1.00    56 H
                                    5.48%     2 S              10.460  0.00    55 H
                                    4.75%     2 S              10.460  0.00    51 H
                                    4.04%     1 S              -6.481  1.00    59 H
                                   -3.75%     2 S              13.069  0.00    20 C
                                    3.63%     2 S              10.460  0.00    43 H
                                    3.42%     2 S              10.460  0.00    58 H
                                    3.37%     1 S              -6.481  1.00    60 H
                                   -3.07%     2 S              13.069  0.00    22 C
                                   -3.04%     2 P:y            12.525  0.00    27 C
                                    2.99%     1 S              -6.481  1.00    40 H
                                    2.91%     2 S              10.460  0.00    57 H
                                    2.55%     2 S              10.460  0.00    56 H
                                   -2.40%     2 P:y            12.525  0.00    30 C
                                   -2.32%     2 S              13.069  0.00    16 C
                                   -2.29%     2 S              13.069  0.00    27 C
                                    2.19%     2 S              10.460  0.00    59 H
                                    2.16%     1 S              -6.481  1.00    63 H
                                   -2.03%     2 S              13.069  0.00    21 C
                                   -1.88%     2 P:y            12.525  0.00    22 C
                                    1.88%     1 S             -13.992  2.00    22 C
                                    1.73%     2 S              10.460  0.00    60 H
                                    1.70%     1 S              -6.481  1.00    61 H
                                    1.67%     1 S              -6.481  1.00    50 H
                                    1.59%     1 S              -6.481  1.00    44 H
                                   -1.51%     2 S              13.069  0.00    30 C
                                    1.50%     1 S              -6.481  1.00    62 H
                                    1.45%     2 S              10.460  0.00    40 H
                                   -1.45%     2 S              13.069  0.00    29 C
                                    1.45%     1 P:y            -5.338  0.67    30 C
                                    1.39%     1 S              -6.481  1.00    37 H
                                    1.28%     2 S              10.460  0.00    63 H
                                   -1.23%     2 S              13.069  0.00    28 C
                                    1.20%     1 S             -13.992  2.00    20 C
                                    1.17%     2 S              10.460  0.00    37 H
                                   -1.13%     2 S              13.069  0.00    13 C
                                   -1.12%     2 P:z            12.525  0.00    16 C
                                    1.05%     2 S              10.460  0.00    61 H
       1.474  0.00   101 A         15.37%     1 S              -6.481  1.00    43 H
                                   12.46%     1 S              -6.481  1.00    50 H
                                   10.72%     1 S              -6.481  1.00    45 H
                                    9.52%     1 S              -6.481  1.00    42 H
                                    6.26%     2 S              10.460  0.00    43 H
                                    5.65%     1 S              -6.481  1.00    63 H
                                    5.59%     1 S              -6.481  1.00    46 H
                                    5.14%     2 S              10.460  0.00    45 H
                                    4.75%     1 S              -6.481  1.00    56 H
                                    3.43%     2 S              10.460  0.00    46 H
                                    3.17%     2 S              10.460  0.00    50 H
                                    3.16%     2 S              10.460  0.00    42 H
                                   -3.11%     2 S              13.069  0.00    16 C
                                    3.05%     1 S              -6.481  1.00    58 H
                                    3.03%     1 S              -6.481  1.00    59 H
                                    2.77%     2 S              10.460  0.00    63 H
                                   -2.58%     2 P:y            12.525  0.00    18 C
                                    2.54%     1 S              -6.481  1.00    62 H
                                    2.20%     2 S              10.460  0.00    56 H
                                   -2.09%     2 P:y            12.525  0.00    15 C
                                   -2.00%     2 S              13.069  0.00    18 C
                                    1.89%     1 S              -6.481  1.00    37 H
                                   -1.86%     2 P:z            12.525  0.00    16 C
                                    1.81%     1 S              -6.481  1.00    40 H
                                   -1.62%     2 P:z            12.525  0.00    21 C
                                   -1.61%     2 P:y            12.525  0.00    16 C
                                   -1.59%     2 S              13.069  0.00    20 C
                                   -1.58%     2 P:y            12.525  0.00     9 C
                                    1.57%     1 S              -6.481  1.00    53 H
                                    1.56%     2 S              10.460  0.00    59 H
                                    1.42%     1 S              -6.481  1.00    60 H
                                   -1.42%     2 S              13.069  0.00     9 C
                                    1.34%     1 S              -6.481  1.00    49 H
                                    1.34%     1 S              -6.481  1.00    33 H
                                    1.32%     1 S              -6.481  1.00    64 H
                                   -1.28%     2 S              13.069  0.00    21 C
                                    1.21%     1 S             -13.992  2.00    16 C
                                    1.20%     2 S              10.460  0.00    58 H
                                    1.15%     1 P:y            -5.338  0.67    18 C
                                    1.14%     2 S              10.460  0.00    37 H
                                   -1.07%     2 S              13.069  0.00    28 C
                                    1.06%     1 P:y            -5.338  0.67     9 C

 Energy gradients wrt nuclear displacements
 ==========================================

     Atom      Cartesian (a.u./angstrom)
                 X         Y         Z
 ----------------------------------------
     1 O     0.000045 -0.000043  0.000000
     2 O     0.000018  0.000002 -0.000006
     3 C    -0.000288 -0.000112 -0.000299
     4 C     0.000303 -0.000061  0.000278
     5 C     0.000149 -0.000246  0.000057
     6 C    -0.000247  0.000237 -0.000150
     7 N     0.000033 -0.000268  0.000074
     8 N     0.000395  0.000041  0.000470
     9 C     0.000167  0.000233  0.000017
    10 C    -0.000002  0.000043 -0.000042
    11 C    -0.000041  0.000125 -0.000023
    12 C    -0.000040  0.000004 -0.000039
    13 H     0.000002  0.000015 -0.000015
    14 H     0.000038  0.000017  0.000015
    15 H     0.000012  0.000061  0.000000
    16 C     0.000007 -0.000137  0.000038
    17 H    -0.000048  0.000054  0.000025
    18 H    -0.000029  0.000036 -0.000019
    19 H     0.000015  0.000038 -0.000020
    20 C     0.000087 -0.000304 -0.000118
    21 H     0.000024  0.000018 -0.000003
    22 H     0.000068  0.000009 -0.000028
    23 H    -0.000292  0.000441  0.000045
    24 C    -0.000045  0.000046  0.000025
    25 C    -0.000090 -0.000003  0.000149
    26 C    -0.000214 -0.000127 -0.000162
    27 C     0.000057  0.000054  0.000038
    28 C     0.000141  0.000020  0.000258
    29 C     0.000114 -0.000199 -0.000203
    30 H    -0.000022 -0.000063 -0.000023
    31 H     0.000005 -0.000026 -0.000020
    32 H     0.000053  0.000029  0.000004
    33 H    -0.000035 -0.000021 -0.000089
    34 H     0.000025 -0.000015 -0.000010
    35 H    -0.000159  0.000100  0.000066
    36 H    -0.000175  0.000019 -0.000518
    37 C    -0.000001 -0.000114  0.000012
    38 H    -0.000014 -0.000025  0.000000
    39 H    -0.000023 -0.000101  0.000025
    40 C     0.000062  0.000006  0.000039
    41 C    -0.000321  0.000088  0.000211
    42 C     0.000377 -0.000116  0.000328
    43 C     0.000104  0.000147 -0.000170
    44 O     0.000062 -0.000017 -0.000344
    45 H     0.000108 -0.000113  0.000156
    46 H    -0.000075  0.000062  0.000023
    47 H    -0.000015 -0.000002  0.000093
    48 C    -0.000108 -0.000026 -0.000246
    49 C     0.000101 -0.000089  0.000049
    50 C    -0.000039  0.000035  0.000150
    51 C     0.000038  0.000098 -0.000024
    52 C    -0.000024  0.000005 -0.000006
    53 C    -0.000040  0.000040  0.000042
    54 H    -0.000117  0.000140 -0.000062
    55 H     0.000001  0.000019 -0.000002
    56 H     0.000010  0.000057 -0.000018
    57 H    -0.000011  0.000041 -0.000016
    58 H    -0.000019  0.000036 -0.000014
    59 H    -0.000008 -0.000008  0.000015
    60 H     0.000007  0.000006 -0.000026
    61 H    -0.000041  0.000023  0.000007
    62 H    -0.000037 -0.000068  0.000013
    63 H    -0.000014 -0.000069 -0.000018
    64 H     0.000008 -0.000072  0.000009
 ----------------------------------------



 =======================================================================
 Electrostatic potential at the Nuclei due to electrons and other nuclei
 =======================================================================
  
         Atom                  Potential
         ----                  ---------
     1)   O                  22.35322027
     2)   O                  22.35211215
     3)   C                  14.68463665
     4)   C                  14.68220653
     5)   C                  14.68365828
     6)   C                  14.68239659
     7)   N                  18.29113854
     8)   N                  18.29236369
     9)   C                  14.67376798
    10)   C                  14.66488472
    11)   C                  14.68972547
    12)   C                  14.73943999
    13)   H                   1.11778810
    14)   H                   1.11880510
    15)   H                   1.11889984
    16)   C                  14.73550049
    17)   H                   1.11461177
    18)   H                   1.11346298
    19)   H                   1.11464588
    20)   C                  14.74722404
    21)   H                   1.12736968
    22)   H                   1.12359800
    23)   H                   1.12646327
    24)   C                  14.70690762
    25)   C                  14.71902331
    26)   C                  14.71993268
    27)   C                  14.72055954
    28)   C                  14.72148344
    29)   C                  14.72468290
    30)   H                   1.09061904
    31)   H                   1.09115703
    32)   H                   1.09101608
    33)   H                   1.09322364
    34)   H                   1.09972829
    35)   H                   1.00566102
    36)   H                   1.00807426
    37)   C                  14.73280259
    38)   H                   1.11007091
    39)   H                   1.10125085
    40)   C                  14.72906568
    41)   C                  14.63772992
    42)   C                  14.69654734
    43)   C                  14.67440240
    44)   O                  22.29505440
    45)   H                   1.07249794
    46)   H                   1.06415510
    47)   H                   1.05645266
    48)   C                  14.67638317
    49)   C                  14.69401207
    50)   C                  14.69813290
    51)   C                  14.69487778
    52)   C                  14.69717439
    53)   C                  14.69202976
    54)   H                   1.07074156
    55)   H                   1.07130555
    56)   H                   1.06853749
    57)   H                   1.06870145
    58)   H                   1.06422312
    59)   H                   1.11145762
    60)   H                   1.10907861
    61)   H                   1.10923932
    62)   H                   1.10591951
    63)   H                   1.10813256
    64)   H                   1.10566269
 Mulliken charges used for AMS results%charges...


    =====================
     CALCULATION RESULTS
    =====================

Energy (hartree)           -13.92112307

Gradients (hartree/bohr)
  Index   Atom            d/dx            d/dy            d/dz
      1      O    0.0000240255   -0.0000228491    0.0000001259
      2      O    0.0000093805    0.0000011028   -0.0000029931
      3      C   -0.0001521804   -0.0000592095   -0.0001583833
      4      C    0.0001601653   -0.0000324444    0.0001468586
      5      C    0.0000786848   -0.0001303729    0.0000301429
      6      C   -0.0001309521    0.0001254367   -0.0000792963
      7      N    0.0000176148   -0.0001417519    0.0000388987
      8      N    0.0002087658    0.0000217633    0.0002487893
      9      C    0.0000882570    0.0001235171    0.0000088339
     10      C   -0.0000013172    0.0000228287   -0.0000221744
     11      C   -0.0000219217    0.0000660156   -0.0000119207
     12      C   -0.0000211869    0.0000020436   -0.0000205461
     13      H    0.0000011122    0.0000077501   -0.0000078755
     14      H    0.0000200838    0.0000091933    0.0000080705
     15      H    0.0000064177    0.0000323222   -0.0000001125
     16      C    0.0000035505   -0.0000725012    0.0000202851
     17      H   -0.0000256200    0.0000286348    0.0000131596
     18      H   -0.0000151251    0.0000189482   -0.0000098690
     19      H    0.0000080899    0.0000199509   -0.0000107552
     20      C    0.0000459919   -0.0001611068   -0.0000625100
     21      H    0.0000127805    0.0000096781   -0.0000017891
     22      H    0.0000359937    0.0000046984   -0.0000146240
     23      H   -0.0001545081    0.0002334599    0.0000237887
     24      C   -0.0000239323    0.0000245284    0.0000129669
     25      C   -0.0000475176   -0.0000014798    0.0000790997
     26      C   -0.0001130445   -0.0000669685   -0.0000857132
     27      C    0.0000303167    0.0000283439    0.0000199184
     28      C    0.0000746432    0.0000108340    0.0001366819
     29      C    0.0000605498   -0.0001055318   -0.0001074352
     30      H   -0.0000114898   -0.0000334678   -0.0000121250
     31      H    0.0000028403   -0.0000136948   -0.0000103688
     32      H    0.0000278836    0.0000154358    0.0000021178
     33      H   -0.0000182662   -0.0000110886   -0.0000469065
     34      H    0.0000133910   -0.0000080320   -0.0000050758
     35      H   -0.0000843280    0.0000529119    0.0000346752
     36      H   -0.0000928262    0.0000098849   -0.0002742159
     37      C   -0.0000002720   -0.0000601616    0.0000063741
     38      H   -0.0000073612   -0.0000131527    0.0000001494
     39      H   -0.0000122199   -0.0000534417    0.0000132199
     40      C    0.0000328413    0.0000032729    0.0000205789
     41      C   -0.0001697952    0.0000465734    0.0001117604
     42      C    0.0001994027   -0.0000616377    0.0001734073
     43      C    0.0000548945    0.0000776407   -0.0000898472
     44      O    0.0000325849   -0.0000090120   -0.0001821784
     45      H    0.0000569900   -0.0000596245    0.0000827460
     46      H   -0.0000399110    0.0000328672    0.0000120272
     47      H   -0.0000079358   -0.0000009009    0.0000492312
     48      C   -0.0000573758   -0.0000137787   -0.0001301368
     49      C    0.0000533782   -0.0000469450    0.0000257807
     50      C   -0.0000204096    0.0000186090    0.0000796129
     51      C    0.0000202829    0.0000519348   -0.0000128633
     52      C   -0.0000129271    0.0000023945   -0.0000033308
     53      C   -0.0000213586    0.0000211063    0.0000224160
     54      H   -0.0000618960    0.0000741217   -0.0000326855
     55      H    0.0000004843    0.0000100520   -0.0000010351
     56      H    0.0000052295    0.0000302411   -0.0000092764
     57      H   -0.0000059733    0.0000219278   -0.0000083198
     58      H   -0.0000099957    0.0000191455   -0.0000072284
     59      H   -0.0000044661   -0.0000043749    0.0000080511
     60      H    0.0000037092    0.0000030092   -0.0000138208
     61      H   -0.0000215713    0.0000120417    0.0000035347
     62      H   -0.0000193834   -0.0000359354    0.0000070490
     63      H   -0.0000075047   -0.0000365479   -0.0000096217
     64      H    0.0000042370   -0.0000382087    0.0000046820


--------------
Atomic charges
--------------
  Index   Atom    Charge
      1      O   -0.7232
      2      O   -0.7335
      3      C    0.2835
      4      C    0.5134
      5      C    0.2884
      6      C    0.5169
      7      N   -0.5573
      8      N   -0.5562
      9      C   -0.0881
     10      C   -0.1348
     11      C   -0.3831
     12      C   -0.0282
     13      H    0.0547
     14      H    0.0420
     15      H    0.0468
     16      C   -0.0699
     17      H    0.0411
     18      H    0.0487
     19      H    0.1000
     20      C   -0.0424
     21      H    0.0705
     22      H    0.0402
     23      H    0.0808
     24      C   -0.1216
     25      C   -0.0258
     26      C   -0.0147
     27      C   -0.0413
     28      C   -0.0269
     29      C   -0.0038
     30      H    0.0710
     31      H    0.0182
     32      H    0.0234
     33      H    0.0196
     34      H    0.1085
     35      H    0.2558
     36      H    0.2725
     37      C   -0.0640
     38      H    0.2464
     39      H    0.2130
     40      C   -0.0770
     41      C    0.6103
     42      C   -0.1978
     43      C    0.0174
     44      O   -0.7520
     45      H    0.0114
     46      H    0.1744
     47      H    0.0758
     48      C   -0.1381
     49      C   -0.0427
     50      C   -0.0053
     51      C   -0.0103
     52      C   -0.0027
     53      C    0.0177
     54      H    0.1378
     55      H    0.0328
     56      H    0.0296
     57      H    0.0268
     58      H    0.0383
     59      H    0.0687
     60      H    0.0570
     61      H    0.0262
     62      H    0.0621
     63      H    0.0672
     64      H    0.0314


Dipole moment vector    (Debye):    -2.27844398   -6.35854102    8.64594670
              magnitude (Debye):    10.97154252


AMS application finished. Exiting.
NORMAL TERMINATION
     Total cpu time:   16191.69
  Total system time:     461.03
 Total elapsed time:   19239.80
