

 Parallel Execution: Process Information
 ==============================================================================
 Rank   Node Name                              NodeID   MyNodeRank  NodeMaster
    0   DESKTOP-1M8FOJT                           0          0          0
    1   DESKTOP-1M8FOJT                           0          1         -1
    2   DESKTOP-1M8FOJT                           0          2         -1
    3   DESKTOP-1M8FOJT                           0          3         -1
 ==============================================================================


May use up to 4096MB of RAM as shared memory on node 0

 *******************************************************************************
 *                                                                             *
 *  --------------------------------                                           *
 *   Amsterdam Modeling Suite (AMS)              2022.101                      *
 *  --------------------------------                                           *
 *                                               r100871 2022-01-28            *
 *                                                                             *
 *                                                                             *
 *                              =================                              *
 *                              |               |                              *
 *                              |     A M S     |                              *
 *                              |               |                              *
 *                              =================                              *
 *                                                                             *
 *                                                                             *
 *   Online information and documentation:  https://www.scm.com/support/       *
 *   E-mail:  support@scm.com   info@scm.com                                   *
 *                                                                             *
 *   Scientific publications using AMS results must be properly referenced     *
 *   See the User Manuals (or the web site) for recommended citations          *
 *   The terms and conditions of the End User License Agreement apply to       *
 *   the use of AMS, https://www.scm.com/license-terms/                        *
 *                                                                             *
 *********************  x86_64_windows_intel / intelmpi  ***********************
 
 Licensed to: Mr. Yuman Hordijk / SCM / Amsterdam / Netherlands 2022-01-24 11:07:43
 SCM User ID: u24430
  
 AMS 2022.101  RunTime: Jan31-2022 14:19:39  ShM Nodes: 1  Procs: 4

 AMS jobname: ams
 AMS jobid  : 1557661567

 Start   directory: D:/Users/Yuman/Desktop/MasterProject/manual_calculations/squaramide/tmp..13128.0.noindex/
 Results directory: D:/Users/Yuman/Desktop/MasterProject/manual_calculations/squaramide/squaramide_tBu_Ph.results/
 Scratch directory: Z:/SCMTMP/amstmp_ams_kid0.1557661567/


 Communication costs MPI_COMM_WORLD:      1.827 usec per message,   0.0045 usec per 8-byte item
 Communication costs for intra-node:      1.763 usec per message,   0.0056 usec per 8-byte item

 RNG seed: -44416121 472636921 -173962868 -524071008 -1317009922 2105855023 341963390 -422565926



                      ************************************************************************
                      *  ADF 2022.101  RunTime: Jan31-2022 14:19:39  ShM Nodes: 1  Procs: 4  *
                      ************************************************************************
  
       ***************************
       *  GEOMETRY OPTIMIZATION  *
       ***************************

Optimization Method                    Quasi Newton
Optimization Coordinates               Delocalized Coordinates
Optimize lattice                       F
 
 ------------------------------------------------------
 Convergence criteria (Hartree,Angstrom)
 ------------------------------------------------------
 Maximum gradient               0.001000000000
 Maximum rms gradient           0.000666666667
 Maximum step allowed           0.010000000000
 Maximum rms step allowed       0.006666666667
 Maximum energy change allowe   0.000580000000
 Maximum stress energy allowe   0.000500000000
 
Initial model Hessian                  Automatic Hessian
 
------------------------------------
Quasi-Newton Optimizer Parameters
------------------------------------
Hessian Update Method                  BFGS
Maximum number of steps                  348
First GDIIS cycle                          0
Maximum GDIIS vectors                      0
Trust radius (bohr)                        0.200000
Trust radius varies                        T
Constraints converged at all steps         T
Use projector                              T
 
 Rigid motions settings for: old optimizer
 Atomic rotations (x,y,z):     T T T
 Atomic translations (x,y,z):  T T T
 Tolerance:                   1.000000000000000E-006
 
--------
Geometry
--------
Formula: C25H28N2O3
Atoms
  Index Symbol   x (angstrom)   y (angstrom)   z (angstrom)
      1      O    -2.09960527     1.98489138    -0.11562132
      2      O     0.87849368     2.81012045     1.09771619
      3      C     0.77769603     0.47128613     0.30975462
      4      C     0.35376902     1.84684429     0.57899218
      5      C    -0.49215212     0.10773860    -0.16052511
      6      C    -1.01723034     1.46622055     0.04675135
      7      N    -1.02482391    -1.04243780    -0.59353984
      8      N     1.95550081    -0.18866285     0.39967903
      9      C    -2.40554933    -1.12398554    -1.04155790
     10      C     3.03983758     0.40668462     1.17848589
     11      C    -3.37311153    -1.64602688     0.04544942
     12      C    -4.77904508    -1.69326766    -0.57120102
     13      H    -5.49842081    -2.06274307     0.15998365
     14      H    -5.08822471    -0.69694583    -0.88809725
     15      H    -4.79531901    -2.35519682    -1.43801150
     16      C    -2.96152383    -3.05667556     0.48858294
     17      H    -2.94186100    -3.73563934    -0.36483948
     18      H    -3.66980868    -3.44200802     1.22269075
     19      H    -1.97119280    -3.04137403     0.94269349
     20      C    -3.37842167    -0.69834649     1.25080275
     21      H    -3.62776545     0.31488802     0.93590475
     22      H    -4.11095010    -1.02877104     1.98788455
     23      H    -2.39734253    -0.68143680     1.72479243
     24      C     2.84292888     0.13523445     2.65386842
     25      C     3.18027121    -1.10651352     3.18749324
     26      C     2.97848153    -1.36690179     4.53567482
     27      C     2.43841533    -0.38859839     5.35997343
     28      C     2.10262031     0.85093854     4.83211432
     29      C     2.29899353     1.11185551     3.48349033
     30      H     3.60486381    -1.87254519     2.54714676
     31      H     3.24366757    -2.33623759     4.94344089
     32      H     2.28052268    -0.59218455     6.41329470
     33      H     1.68264377     1.61766520     5.47357167
     34      H     2.03104058     2.07869743     3.07224986
     35      H    -0.50182664    -1.89873599    -0.46923332
     36      H     1.89852533    -1.20125109     0.43043528
     37      H    -2.43688329    -1.79255055    -1.90923121
     38      H    -2.71718302    -0.12443933    -1.35704554
     39      H     3.05081686     1.48125144     0.98068493
     40      H     3.97867496    -0.03358449     0.82861461
     41      C     0.33763991    -2.78401727     2.28082746
     42      C    -0.12907604    -1.57377731     2.92761314
     43      C    -0.57618887    -1.54251947     4.20010619
     44      O     0.72511430    -2.82192397     1.12705340
     45      H     0.32004955    -3.69737403     2.90973629
     46      H    -0.08666968    -0.67600800     2.32301631
     47      H    -0.57939700    -2.46770768     4.77454288
     48      C    -1.05752882    -0.36710432     4.89803402
     49      C    -1.19240553     0.88025548     4.26943679
     50      C    -1.64293309     1.97862872     4.97879872
     51      C    -1.96632743     1.85834237     6.32533209
     52      C    -1.84135782     0.62898804     6.96085534
     53      C    -1.39369181    -0.47453071     6.25555356
     54      H    -0.94445937     0.99504386     3.22146076
     55      H    -1.74074373     2.93566981     4.47993970
     56      H    -2.31649482     2.72190889     6.87875216
     57      H    -2.09426391     0.53226769     8.01060554
     58      H    -1.29484651    -1.43248507     6.75487457
 
Total System Charge             0.00000
Bonding info available!
 
 
----------------
ADF Engine Input
----------------
 
 Basis
 Type DZP
 Core None
 End
 XC
 GGA OLYP
 End
 

 Title: *** (NO TITLE) ***

 Using automatic Hessian for delocalized coordinates.
 *** GO1_GOStep1 ***

 Energy gradients wrt nuclear displacements
 ==========================================

     Atom      Cartesian (a.u./angstrom)
                 X         Y         Z
 ----------------------------------------
     1 O     0.026043 -0.024893  0.004864
     2 O    -0.010503 -0.036752 -0.009017
     3 C    -0.015108  0.021539  0.013497
     4 C    -0.000533  0.004062  0.000131
     5 C    -0.007340  0.025940  0.007181
     6 C    -0.000239  0.002483  0.004230
     7 N    -0.003885 -0.022249  0.005519
     8 N     0.013313 -0.016657  0.009403
     9 C     0.007444  0.004481 -0.004590
    10 C    -0.002702  0.002914 -0.008347
    11 C     0.010119  0.003008 -0.001452
    12 C    -0.008307 -0.000464 -0.000142
    13 H     0.004783  0.001838 -0.001872
    14 H     0.004625 -0.004242  0.002299
    15 H     0.003598  0.003547  0.005088
    16 C    -0.001498 -0.006816  0.002660
    17 H     0.000202  0.007308  0.003123
    18 H     0.002086  0.004028 -0.003449
    19 H     0.002793  0.005150 -0.001446
    20 C    -0.000849  0.001244  0.005936
    21 H     0.001111 -0.002249 -0.002859
    22 H     0.001999  0.002079 -0.005059
    23 H     0.005753 -0.000608 -0.003562
    24 C    -0.011698 -0.004835  0.006420
    25 C    -0.005601  0.000607 -0.003096
    26 C    -0.003312  0.005179 -0.000881
    27 C    -0.001599 -0.000078 -0.005777
    28 C    -0.001948 -0.001752 -0.005343
    29 C    -0.002906 -0.005903 -0.003964
    30 H    -0.002641  0.002606  0.000685
    31 H    -0.001538  0.002976 -0.001803
    32 H     0.000033  0.000492 -0.002836
    33 H     0.001268 -0.000605 -0.001130
    34 H    -0.000252  0.000234  0.000672
    35 H    -0.003577 -0.000993 -0.000336
    36 H     0.003284  0.000642  0.001247
    37 H     0.000416 -0.000385  0.002439
    38 H    -0.002063  0.003398  0.001464
    39 H    -0.002906  0.004145  0.000744
    40 H    -0.001587 -0.001922  0.000183
    41 C     0.014691 -0.011916 -0.044175
    42 C    -0.001268  0.004535  0.004500
    43 C     0.000422  0.001089  0.001810
    44 O    -0.019746  0.019562  0.042111
    45 H    -0.000892  0.005001  0.000563
    46 H     0.000166  0.004067 -0.004561
    47 H    -0.000731  0.002185 -0.000044
    48 C     0.001791  0.004085  0.000067
    49 C     0.002477 -0.000524  0.004238
    50 C    -0.000148 -0.002349  0.004710
    51 C     0.001166 -0.002305 -0.004651
    52 C     0.001314 -0.000099 -0.007200
    53 C     0.000328  0.003042  0.000889
    54 H     0.001698 -0.002261 -0.004365
    55 H     0.000361 -0.002784  0.002286
    56 H     0.001274 -0.002662 -0.001971
    57 H     0.000810  0.000443 -0.003284
    58 H     0.000007  0.002397 -0.001746
 ----------------------------------------
 Mulliken charges used for AMS results%charges...
 
----------------------------------------------------------------------
Geometry Convergence after Step   1       (Hartree/Angstrom,Angstrom)
----------------------------------------------------------------------
current energy                              -12.66785362 Hartree
energy change                     -12.66785362     0.00058000    F
constrained gradient max            0.04443408     0.00100000    F
constrained gradient rms            0.00836991     0.00066667    F
gradient max                        0.04443408
gradient rms                        0.00836991
cart. step max                      0.21219513     0.01000000    F
cart. step rms                      0.05417695     0.00666667    F
 
 
--------
Geometry
--------
Formula: C25H28N2O3
Atoms
  Index Symbol   x (angstrom)   y (angstrom)   z (angstrom)
      1      O    -2.09684355     2.00906913    -0.09562353
      2      O     0.88775532     2.83940858     1.09690959
      3      C     0.78724058     0.47933662     0.32237871
      4      C     0.36393156     1.86042713     0.58696952
      5      C    -0.48688560     0.11264339    -0.13995045
      6      C    -1.01188368     1.47682387     0.06340863
      7      N    -1.02362585    -1.04095371    -0.56931618
      8      N     1.96597929    -0.17774023     0.40908721
      9      C    -2.40941454    -1.13836683    -1.02417678
     10      C     3.05937731     0.41493534     1.18549641
     11      C    -3.44631746    -1.68446130    -0.00689333
     12      C    -4.80756357    -1.71167376    -0.72142982
     13      H    -5.57809897    -2.09843232    -0.05194940
     14      H    -5.09664615    -0.70641231    -1.03428501
     15      H    -4.76813834    -2.35149743    -1.60599356
     16      C    -3.07158812    -3.11061537     0.42640427
     17      H    -2.99676812    -3.77161898    -0.44027057
     18      H    -3.83123197    -3.51179748     1.10025997
     19      H    -2.11642414    -3.12021886     0.94949725
     20      C    -3.53970755    -0.77155851     1.22277641
     21      H    -3.76936077     0.25178417     0.92459607
     22      H    -4.32314523    -1.12535478     1.89594726
     23      H    -2.59903269    -0.76655811     1.77095708
     24      C     2.87508601     0.14698378     2.66454751
     25      C     3.21377942    -1.09579077     3.19975634
     26      C     3.01880696    -1.35354049     4.55080948
     27      C     2.48485005    -0.37243628     5.37809111
     28      C     2.14820308     0.86804559     4.85104148
     29      C     2.33814655     1.12725277     3.49898585
     30      H     3.63403317    -1.86496207     2.55888060
     31      H     3.28479673    -2.32323918     4.95979394
     32      H     2.33276079    -0.57504023     6.43324385
     33      H     1.73311640     1.63606168     5.49485589
     34      H     2.06965854     2.09386181     3.08758465
     35      H    -0.49490670    -1.89504084    -0.44591747
     36      H     1.90906749    -1.19029038     0.44238449
     37      H    -2.41003887    -1.79869884    -1.89930192
     38      H    -2.71263270    -0.13692504    -1.33866272
     39      H     3.07242898     1.48819200     0.98685112
     40      H     3.99542544    -0.02679937     0.82936217
     41      C     0.36238154    -2.77164693     2.31133401
     42      C    -0.09939045    -1.55880924     2.95688266
     43      C    -0.53812826    -1.52314246     4.23474664
     44      O     0.74488743    -2.81374897     1.14554194
     45      H     0.34921595    -3.68463547     2.94274749
     46      H    -0.06199238    -0.66343204     2.34873969
     47      H    -0.53772561    -2.44810404     4.81043911
     48      C    -1.01468633    -0.34471592     4.93715948
     49      C    -1.15251592     0.90442045     4.30918813
     50      C    -1.59723489     2.00542302     5.02064280
     51      C    -1.91256308     1.88752609     6.37159368
     52      C    -1.78538414     0.65692937     7.00815178
     53      C    -1.34337303    -0.44951370     6.29884882
     54      H    -0.91186948     1.01967392     3.26069228
     55      H    -1.69653948     2.96245760     4.51983015
     56      H    -2.25807175     2.75329899     6.92642232
     57      H    -2.03200431     0.56157073     8.06039180
     58      H    -1.24325321    -1.40744036     6.79939379
 
Total System Charge             0.00000
Bonding info available!
 
 *** GO1_GOStep2 ***
