

 Parallel Execution: Process Information
 ==============================================================================
 Rank   Node Name                              NodeID   MyNodeRank  NodeMaster
    0   node120                                   0          0          0
    1   node120                                   0          1         -1
    2   node120                                   0          2         -1
    3   node120                                   0          3         -1
 ==============================================================================


May use up to 122928MB of RAM as shared memory on node 0

 *******************************************************************************
 *                                                                             *
 *  --------------------------------                                           *
 *   Amsterdam Modeling Suite (AMS)              2021.102                      *
 *  --------------------------------                                           *
 *                                               r95042 2021-06-07             *
 *                                                                             *
 *                                                                             *
 *                              =================                              *
 *                              |               |                              *
 *                              |     A M S     |                              *
 *                              |               |                              *
 *                              =================                              *
 *                                                                             *
 *                                                                             *
 *   Online information and documentation:  https://www.scm.com/support/       *
 *   E-mail:  support@scm.com   info@scm.com                                   *
 *                                                                             *
 *   Scientific publications using AMS results must be properly referenced     *
 *   See the User Manuals (or the web site) for recommended citations          *
 *   The terms and conditions of the End User License Agreement apply to       *
 *   the use of AMS, https://www.scm.com/license-terms/                        *
 *                                                                             *
 **********************  x86_64_linux_intel / intelmpi  ************************
 
 Licensed to: VU/FEW (+ SARA) / ALGEMEEN / Amsterdam / THE NETHERLANDS
 SCM User ID: u7668
  
 AMS 2021.102  RunTime: Jan30-2022 00:39:58  ShM Nodes: 1  Procs: 4

 AMS jobname: 52.achiral_catalyst.H_tBu_ZnCl2.P1
 AMS jobid  : 421642681

 Start   directory: /scistor/tc/yhk800/MasterProject/calculations/achiral_catalyst_H_tBu_ZnCl2/52.achiral_catalyst.H_tBu_ZnCl2.P1/
 Results directory: /scistor/tc/yhk800/MasterProject/calculations/achiral_catalyst_H_tBu_ZnCl2/52.achiral_catalyst.H_tBu_ZnCl2.P1/
 Scratch directory: /scratch/5507/amstmp_52.achiral_catalyst.H_tBu_ZnCl2.P1_kid0.421642681/


 Communication costs MPI_COMM_WORLD:      1.620 usec per message,   0.0057 usec per 8-byte item
 Communication costs for intra-node:      0.926 usec per message,   0.0066 usec per 8-byte item

 RNG seed: 1556030317 970125349 -1366930396 920324445 -1592164969 1986102951 80903698 -2139215425



                      ************************************************************************
                      *  ADF 2021.102  RunTime: Jan30-2022 00:39:59  ShM Nodes: 1  Procs: 4  *
                      ************************************************************************
  
       ***************************
       *  GEOMETRY OPTIMIZATION  *
       ***************************

Optimization Method                    Quasi Newton
Optimization Coordinates               Delocalized Coordinates
Optimize lattice                       F
 
 ------------------------------------------------------
 Convergence criteria (Hartree,Angstrom)
 ------------------------------------------------------
 Maximum gradient               0.001000000000
 Maximum rms gradient           0.000666666667
 Maximum step allowed           0.010000000000
 Maximum rms step allowed       0.006666666667
 Maximum energy change allowe   0.000270000000
 Maximum stress energy allowe   0.000500000000
 
Initial model Hessian                  Automatic Hessian
 
------------------------------------
Quasi-Newton Optimizer Parameters
------------------------------------
Hessian Update Method                  BFGS
Maximum number of steps                  250
First GDIIS cycle                          0
Maximum GDIIS vectors                      0
Trust radius (bohr)                        0.200000
Trust radius varies                        T
Constraints converged at all steps         T
Use projector                              T
 
 Rigid motions settings for: old optimizer
 Atomic rotations (x,y,z):     T T T
 Atomic translations (x,y,z):  T T T
 Tolerance:                   1.000000000000000E-006
 
--------
Geometry
--------
Formula: C8H15Cl2OSn
Atoms
  Index Symbol   x (angstrom)   y (angstrom)   z (angstrom)
      1      H     0.30883566    -1.71322737     0.34845077
      2      C    -0.85933175     0.07325638     0.95361639
      3      C     0.30566658    -0.62207952     0.35697327
      4      C     1.44363467     0.02246096    -0.23005168
      5      O     2.41991567    -0.55928782    -0.73004528
      6      H    -0.69195270     1.15283717     0.94428296
      7      H    -2.09949902     0.10683830     2.73788510
      8      H    -0.38777363    -0.20492454     3.06899219
      9      C    -1.20706757    -0.41125312     2.37345100
     10      H    -1.40849480    -1.48746718     2.39475159
     11      C    -1.70937506     0.20354156    -1.38496935
     12      C    -2.07744753    -0.18985427     0.04886961
     13      C    -3.24807681     0.65887181     0.55426345
     14      C    -2.42346101    -1.68006514     0.12422237
     15      H    -2.66121687    -1.96192776     1.15056780
     16      H    -2.55085832     0.03060734    -2.05797047
     17      H    -0.86007945    -0.38556238    -1.73283836
     18      H    -1.44001103     1.25935324    -1.43040126
     19      H    -4.13281786     0.49873837    -0.06421966
     20      H    -2.98931684     1.71782142     0.52219591
     21      H    -3.49151556     0.39312814     1.58357255
     22      H    -3.28501950    -1.90595353    -0.50635057
     23      H    -1.57908657    -2.28215009    -0.21324594
     24      H     2.13175883    -0.63340533    -0.72119785
     25     Sn     1.54062743     0.82456511    -0.28082009
     26     Cl     1.39295292     1.73554202     1.91467519
     27     Cl     0.41913416     2.51362980    -1.53027936
 
Total System Charge             0.00000
 
 
----------------
ADF Engine Input
----------------
 
 NumericalQuality VeryGood
 SCF
 Converge 1.0e-6
 Iterations 99
 End
 SYMMETRY NOSYM
 SpinPolarization 1.0
 Unrestricted Yes
 XC
 GGA OLYP
 End
 basis
 core None
 type TZ2P
 End
 

 Title: *** (NO TITLE) ***

 Using automatic Hessian for delocalized coordinates.
 *** GOStep1 ***

 Energy gradients wrt nuclear displacements
 ==========================================

     Atom      Cartesian (a.u./angstrom)
                 X         Y         Z
 ----------------------------------------
     1 H    -0.020019 -0.010064  0.014317
     2 C     0.034106 -0.003743 -0.014705
     3 C     0.049374  0.159324 -0.083029
     4 C     2.984578 21.723755 -1.649059
     5 O   -29.499839 -7.037581  0.817257
     6 H     0.008575  0.003790 -0.010395
     7 H    -0.009925  0.002726 -0.002264
     8 H     0.003196 -0.000386  0.001978
     9 C    -0.031913 -0.006245 -0.026066
    10 H    -0.007532 -0.008225 -0.003483
    11 C     0.027165  0.000283 -0.001491
    12 C     0.015084  0.009921  0.023985
    13 C     0.002574  0.002125  0.003143
    14 C     0.014460 -0.001027  0.005187
    15 H     0.008380  0.008277  0.008422
    16 H     0.002341  0.002591  0.004744
    17 H     0.002784  0.001328  0.008598
    18 H     0.009711  0.011431  0.005106
    19 H     0.003564 -0.000804  0.001417
    20 H     0.002632 -0.005580 -0.000323
    21 H     0.011226 -0.004045  0.004843
    22 H     0.001428  0.003798  0.002747
    23 H     0.004057  0.008522  0.003858
    24 H    28.833134  8.114456 -0.356363
    25 Sn   -2.479139-22.831385  1.306135
    26 Cl   -0.003788 -0.056457 -0.106704
    27 Cl    0.033787 -0.086785  0.042146
 ----------------------------------------
 Mulliken charges used for AMS results%charges...
 
----------------------------------------------------------------------
Geometry Convergence after Step   1       (Hartree/Angstrom,Angstrom)
----------------------------------------------------------------------
current energy                                4.35363091 Hartree
energy change                       4.35363091     0.00027000    F
constrained gradient max           29.49978070     0.00100000    F
constrained gradient rms            5.91137922     0.00066667    F
gradient max                       29.49978070
gradient rms                        5.91137922
cart. step max                      0.02835513     0.01000000    F
cart. step rms                      0.00644851     0.00666667    T
 
 
--------
Geometry
--------
Formula: C8H15Cl2OSn
Atoms
  Index Symbol   x (angstrom)   y (angstrom)   z (angstrom)
      1      H     0.30379512    -1.71713733     0.35066358
      2      C    -0.86020544     0.07502860     0.95426503
      3      C     0.30407582    -0.62601485     0.35760893
      4      C     1.43749649    -0.00343818    -0.22755080
      5      O     2.44817090    -0.55606427    -0.73048416
      6      H    -0.69388967     1.15475392     0.94519898
      7      H    -2.09751896     0.10485232     2.74064765
      8      H    -0.38486913    -0.20483230     3.06859613
      9      C    -1.20499081    -0.41155255     2.37417143
     10      H    -1.40485077    -1.48803447     2.39463965
     11      C    -1.70957716     0.20474981    -1.38526603
     12      C    -2.07787173    -0.18932653     0.04833728
     13      C    -3.24977096     0.65806477     0.55324724
     14      C    -2.42238076    -1.68002527     0.12299212
     15      H    -2.66050644    -1.96259509     1.14903962
     16      H    -2.55058627     0.03099359    -2.05868298
     17      H    -0.85948225    -0.38332445    -1.73294169
     18      H    -1.44140089     1.26081793    -1.43042750
     19      H    -4.13396787     0.49711571    -0.06582781
     20      H    -2.99215439     1.71732679     0.52157102
     21      H    -3.49365159     0.39190485     1.58233023
     22      H    -3.28332955    -1.90659137    -0.50819641
     23      H    -1.57721837    -2.28118744    -0.21418331
     24      H     2.10340370    -0.64711588    -0.71854229
     25     Sn     1.54061124     0.83712073    -0.28080301
     26     Cl     1.40159518     1.75174943     1.91428684
     27     Cl     0.41919860     2.52679512    -1.53030946
 
Total System Charge             0.00000
 
 *** GOStep2 ***

 Energy gradients wrt nuclear displacements
 ==========================================

     Atom      Cartesian (a.u./angstrom)
                 X         Y         Z
 ----------------------------------------
     1 H    -0.015658 -0.007792  0.013854
     2 C     0.033196 -0.000486 -0.015517
     3 C     0.042607  0.156060 -0.078736
     4 C     2.523439 17.656110 -1.410344
     5 O   -18.054004 -4.211422  0.568863
     6 H     0.006937  0.004189 -0.009997
     7 H    -0.009776  0.002597 -0.002269
     8 H     0.003035 -0.000532  0.002010
     9 C    -0.030831 -0.006624 -0.025249
    10 H    -0.007521 -0.008193 -0.003421
    11 C     0.026588  0.000056 -0.001446
    12 C     0.015069  0.010126  0.023129
    13 C     0.002332  0.002057  0.003098
    14 C     0.014523 -0.001170  0.005269
    15 H     0.008295  0.008171  0.008379
    16 H     0.002199  0.002537  0.004777
    17 H     0.002712  0.001359  0.008708
    18 H     0.009297  0.011109  0.005201
    19 H     0.003476 -0.000832  0.001482
    20 H     0.002596 -0.005601 -0.000260
    21 H     0.011041 -0.004014  0.004760
    22 H     0.001392  0.003704  0.002777
    23 H     0.004154  0.008395  0.003889
    24 H    17.395256  5.264900 -0.108841
    25 Sn   -2.014046-18.743185  1.063365
    26 Cl   -0.006205 -0.056190 -0.104669
    27 Cl    0.029897 -0.085329  0.041190
 ----------------------------------------
 Mulliken charges used for AMS results%charges...

 dE(predicted):    -0.26458E+01, dE(actual):    -0.21957E+01, Trust radius:    0.400000, all in a.u.
 
----------------------------------------------------------------------
Geometry Convergence after Step   2       (Hartree/Angstrom,Angstrom)
----------------------------------------------------------------------
current energy                                2.15794576 Hartree
energy change                      -2.19568516     0.00027000    F
constrained gradient max           18.74299488     0.00100000    F
constrained gradient rms            4.08397179     0.00066667    F
gradient max                       18.74299488
gradient rms                        4.08397179
cart. step max                      0.07144279     0.01000000    F
cart. step rms                      0.01441718     0.00666667    F
 
 
--------
Geometry
--------
Formula: C8H15Cl2OSn
Atoms
  Index Symbol   x (angstrom)   y (angstrom)   z (angstrom)
      1      H     0.29066568    -1.72795865     0.35750322
      2      C    -0.86229642     0.08037121     0.95619377
      3      C     0.30047980    -0.63696695     0.35972198
      4      C     1.42096455    -0.07488097    -0.21972810
      5      O     2.48655910    -0.55975894    -0.73065894
      6      H    -0.69926580     1.16051014     0.94796529
      7      H    -2.09107231     0.09900012     2.74886942
      8      H    -0.37571297    -0.20412903     3.06740681
      9      C    -1.19825243    -0.41225112     2.37635887
     10      H    -1.39326599    -1.48949756     2.39449306
     11      C    -1.71087715     0.20817057    -1.38643238
     12      C    -2.07923742    -0.18785678     0.04666844
     13      C    -3.25482612     0.65560209     0.55044977
     14      C    -2.41931762    -1.68009633     0.11919561
     15      H    -2.65833621    -1.96499436     1.14431993
     16      H    -2.55076550     0.03188349    -2.06073058
     17      H    -0.85854960    -0.37680817    -1.73394206
     18      H    -1.44632116     1.26495008    -1.43103972
     19      H    -4.13755454     0.49220850    -0.07018343
     20      H    -3.00065491     1.71581581     0.51984569
     21      H    -3.49986783     0.38829919     1.57890632
     22      H    -3.27862293    -1.90856308    -0.51364872
     23      H    -1.57197939    -2.27859052    -0.21739941
     24      H     2.06222312    -0.67993711    -0.71232660
     25     Sn     1.54084651     0.87395724    -0.28035129
     26     Cl     1.42212156     1.79820730     1.91408568
     27     Cl     0.42304001     2.56734739    -1.53116237
 
Total System Charge             0.00000
 
 *** GOStep3 ***

 Energy gradients wrt nuclear displacements
 ==========================================

     Atom      Cartesian (a.u./angstrom)
                 X         Y         Z
 ----------------------------------------
     1 H    -0.004004 -0.000178  0.008273
     2 C     0.030833  0.009287 -0.014269
     3 C     0.036878  0.164568 -0.074438
     4 C     1.649051 10.348246 -0.967214
     5 O    -9.410670 -2.169282  0.365745
     6 H     0.003211  0.004912 -0.009145
     7 H    -0.009106  0.002136 -0.002665
     8 H     0.002738 -0.000826  0.001792
     9 C    -0.027899 -0.008145 -0.023010
    10 H    -0.007400 -0.008158 -0.003226
    11 C     0.024715 -0.000286 -0.001362
    12 C     0.014492  0.009808  0.019814
    13 C     0.002101  0.002057  0.003109
    14 C     0.014702 -0.001596  0.005518
    15 H     0.008144  0.007795  0.007979
    16 H     0.002054  0.002188  0.004658
    17 H     0.002757  0.001198  0.008518
    18 H     0.008380  0.010013  0.005208
    19 H     0.003517 -0.001026  0.001451
    20 H     0.002603 -0.005703 -0.000270
    21 H     0.010601 -0.003934  0.004311
    22 H     0.001550  0.003403  0.002684
    23 H     0.004482  0.007784  0.003726
    24 H     8.793962  3.146900  0.078806
    25 Sn   -1.157460-11.382947  0.632739
    26 Cl   -0.013277 -0.057581 -0.094245
    27 Cl    0.013043 -0.080634  0.035514
 ----------------------------------------
 Mulliken charges used for AMS results%charges...

 dE(predicted):    -0.30491E+01, dE(actual):    -0.27112E+01, Trust radius:    0.800000, all in a.u.
 
----------------------------------------------------------------------
Geometry Convergence after Step   3       (Hartree/Angstrom,Angstrom)
----------------------------------------------------------------------
current energy                               -0.55329202 Hartree
energy change                      -2.71123778     0.00027000    F
constrained gradient max           11.38301584     0.00100000    F
constrained gradient rms            2.28455792     0.00066667    F
gradient max                       11.38301584
gradient rms                        2.28455792
cart. step max                      0.12614162     0.01000000    F
cart. step rms                      0.03606466     0.00666667    F
 
 
--------
Geometry
--------
Formula: C8H15Cl2OSn
Atoms
  Index Symbol   x (angstrom)   y (angstrom)   z (angstrom)
      1      H     0.26541674    -1.75356356     0.38700857
      2      C    -0.86539385     0.09447019     0.96445888
      3      C     0.29435317    -0.66142426     0.37861629
      4      C     1.39226824    -0.19732652    -0.18040675
      5      O     2.54760175    -0.61142051    -0.73429393
      6      H    -0.71220331     1.17497018     0.95978358
      7      H    -2.06111476     0.08109080     2.78282418
      8      H    -0.33755207    -0.19572991     3.06503350
      9      C    -1.16933888    -0.41273361     2.38874450
     10      H    -1.34630333    -1.49129471     2.40488115
     11      C    -1.74014480     0.20976694    -1.39899327
     12      C    -2.09544602    -0.18794341     0.03784463
     13      C    -3.27921237     0.64885696     0.54307041
     14      C    -2.43074757    -1.68600738     0.09968892
     15      H    -2.67207970    -1.98532505     1.11943399
     16      H    -2.58454680     0.02545504    -2.06694266
     17      H    -0.88663624    -0.36762987    -1.75673710
     18      H    -1.48596549     1.26676419    -1.44950728
     19      H    -4.16038318     0.48008854    -0.07958225
     20      H    -3.03377665     1.71212301     0.51376721
     21      H    -3.52890624     0.38247322     1.57019651
     22      H    -3.28909775    -1.91201446    -0.53648121
     23      H    -1.58373986    -2.28281161    -0.24164405
     24      H     2.10048740    -0.76552083    -0.70451231
     25     Sn     1.56455065     0.97758673    -0.26717998
     26     Cl     1.48431901     1.92434892     1.94047202
     27     Cl     0.47371592     2.68678453    -1.54516326
 
Total System Charge             0.00000
 
 *** GOStep4 ***

 Energy gradients wrt nuclear displacements
 ==========================================

     Atom      Cartesian (a.u./angstrom)
                 X         Y         Z
 ----------------------------------------
     1 H     0.027902  0.024595 -0.029186
     2 C     0.037071  0.027888  0.008847
     3 C    -0.024074  0.180046 -0.008931
     4 C     0.981639  4.031359 -0.602107
     5 O    -7.166449 -2.256237  0.440377
     6 H    -0.006430  0.004634 -0.004273
     7 H    -0.006886 -0.000475  0.000638
     8 H     0.002289 -0.001196  0.001228
     9 C    -0.025435 -0.002283 -0.014984
    10 H    -0.004956 -0.005411 -0.003139
    11 C     0.016720 -0.000479 -0.003362
    12 C     0.010985  0.009981  0.008218
    13 C    -0.002563  0.001459  0.002724
    14 C     0.011134 -0.002324  0.005042
    15 H     0.006732  0.006864  0.005059
    16 H     0.000800  0.001889  0.002735
    17 H     0.002808  0.001350  0.008937
    18 H     0.002829  0.002884  0.005360
    19 H     0.002070 -0.000386  0.001245
    20 H     0.002553 -0.004392  0.000029
    21 H     0.008845 -0.002463  0.002091
    22 H     0.001290  0.001776  0.001693
    23 H     0.005855  0.007031  0.003053
    24 H     6.769742  2.895598 -0.116673
    25 Sn   -0.633959 -4.852157  0.313451
    26 Cl   -0.018895 -0.037303 -0.040562
    27 Cl   -0.001617 -0.032246  0.012491
 ----------------------------------------
 Mulliken charges used for AMS results%charges...

 dE(predicted):    -0.17904E+01, dE(actual):    -0.20457E+01, Trust radius:    1.000000, all in a.u.
 
----------------------------------------------------------------------
Geometry Convergence after Step   4       (Hartree/Angstrom,Angstrom)
----------------------------------------------------------------------
current energy                               -2.59902066 Hartree
energy change                      -2.04572864     0.00027000    F
constrained gradient max            7.16647046     0.00100000    F
constrained gradient rms            1.37228328     0.00066667    F
gradient max                        7.16647046
gradient rms                        1.37228328
cart. step max                      0.20830861     0.01000000    F
cart. step rms                      0.03602284     0.00666667    F
 
 
--------
Geometry
--------
Formula: C8H15Cl2OSn
Atoms
  Index Symbol   x (angstrom)   y (angstrom)   z (angstrom)
      1      H     0.24321567    -1.77447990     0.41341913
      2      C    -0.86773464     0.09665608     0.97482322
      3      C     0.28920172    -0.67493805     0.39536821
      4      C     1.36530706    -0.20821523    -0.14816843
      5      O     2.75591036    -0.55191796    -0.75929987
      6      H    -0.71850066     1.17670984     0.97116826
      7      H    -2.04253548     0.07091052     2.80556775
      8      H    -0.31570717    -0.19320647     3.06923228
      9      C    -1.15274640    -0.41599353     2.40226683
     10      H    -1.32101246    -1.49431633     2.42076169
     11      C    -1.75687716     0.20734384    -1.40677740
     12      C    -2.11093499    -0.19284738     0.03158761
     13      C    -3.29726415     0.64387680     0.53828306
     14      C    -2.45229080    -1.69461478     0.08289032
     15      H    -2.69951299    -2.00497067     1.09756761
     16      H    -2.60317434     0.02292190    -2.07333806
     17      H    -0.90455205    -0.36816858    -1.77145635
     18      H    -1.50323781     1.26373532    -1.45985289
     19      H    -4.17703590     0.47615661    -0.08771757
     20      H    -3.05339996     1.70858584     0.51235414
     21      H    -3.55344990     0.37765575     1.56376326
     22      H    -3.31041989    -1.91133835    -0.55786183
     23      H    -1.61012122    -2.29683945    -0.26084851
     24      H     1.98896725    -0.86415552    -0.68492114
     25     Sn     1.59575082     1.02745225    -0.26229296
     26     Cl     1.57042198     2.00092900     1.94811829
     27     Cl     0.50185715     2.72710201    -1.56025635
 
Total System Charge             0.00000
 
 *** GOStep5 ***

 Energy gradients wrt nuclear displacements
 ==========================================

     Atom      Cartesian (a.u./angstrom)
                 X         Y         Z
 ----------------------------------------
     1 H     0.028190  0.007070 -0.018389
     2 C     0.037447  0.046200  0.003812
     3 C     0.039591  0.152226 -0.043466
     4 C     0.848448  3.019419 -0.463736
     5 O    -0.667391 -0.073293  0.089048
     6 H    -0.007466  0.002370 -0.002893
     7 H    -0.003812 -0.000535 -0.002275
     8 H     0.001378 -0.001225  0.000666
     9 C    -0.016140 -0.008947 -0.010091
    10 H    -0.003825 -0.002710 -0.001667
    11 C     0.013416  0.000645 -0.003919
    12 C     0.002561  0.008004 -0.001036
    13 C    -0.003977  0.001679  0.003603
    14 C     0.008138 -0.005583  0.003675
    15 H     0.006012  0.005425  0.002751
    16 H     0.000675  0.001191  0.001928
    17 H     0.003051  0.001128  0.007537
    18 H     0.003034  0.001389  0.004575
    19 H     0.001729 -0.000606  0.001005
    20 H     0.002566 -0.003305  0.000246
    21 H     0.007298 -0.001480  0.001055
    22 H     0.001029  0.001043  0.001276
    23 H     0.005178  0.005571  0.003277
    24 H     0.338193  0.478289  0.134726
    25 Sn   -0.609933 -3.581434  0.300566
    26 Cl   -0.021532 -0.029770 -0.017968
    27 Cl   -0.013860 -0.022762  0.005692
 ----------------------------------------
 Mulliken charges used for AMS results%charges...
 Rebuilding optimization coordinates

 dE(predicted):    -0.20488E+01, dE(actual):    -0.12964E+01, Trust radius:    1.000000, all in a.u.
 
----------------------------------------------------------------------
Geometry Convergence after Step   5       (Hartree/Angstrom,Angstrom)
----------------------------------------------------------------------
current energy                               -3.89546560 Hartree
energy change                      -1.29644494     0.00027000    F
constrained gradient max            3.58143945     0.00100000    F
constrained gradient rms            0.54654820     0.00066667    F
gradient max                        3.58143945
gradient rms                        0.54654820
cart. step max                      0.21248780     0.01000000    F
cart. step rms                      0.06832480     0.00666667    F
 
 
--------
Geometry
--------
Formula: C8H15Cl2OSn
Atoms
  Index Symbol   x (angstrom)   y (angstrom)   z (angstrom)
      1      H     0.21273270    -1.82801726     0.48585472
      2      C    -0.85255228     0.06260262     0.96542423
      3      C     0.30916526    -0.72253808     0.43049453
      4      C     1.35130821    -0.23996955    -0.05101738
      5      O     2.86107347    -0.43317887    -0.70683017
      6      H    -0.69828168     1.14150429     0.95993172
      7      H    -1.97973989     0.04748602     2.82707480
      8      H    -0.24475523    -0.16861289     3.04825406
      9      C    -1.09199970    -0.42923327     2.40935567
     10      H    -1.22948141    -1.50976361     2.45952298
     11      C    -1.82804558     0.15378907    -1.43763207
     12      C    -2.12233017    -0.23558717     0.01986071
     13      C    -3.28440511     0.63432166     0.53255541
     14      C    -2.55855377    -1.71832370     0.03931669
     15      H    -2.83000006    -2.05145443     1.04114711
     16      H    -2.71573221    -0.01339313    -2.05393970
     17      H    -1.01938244    -0.44346728    -1.86310117
     18      H    -1.55484394     1.20405719    -1.52132108
     19      H    -4.16776170     0.48613989    -0.09470398
     20      H    -3.02106387     1.69547854     0.50087992
     21      H    -3.56020787     0.38355937     1.55747020
     22      H    -3.43626160    -1.85046889    -0.59922898
     23      H    -1.77810799    -2.38068255    -0.33700350
     24      H     2.08795148    -0.84974520    -0.64088915
     25     Sn     1.66438982     1.14650171    -0.20644864
     26     Cl     1.70795876     2.21341680     1.96443179
     27     Cl     0.63905085     2.85961229    -1.53507843
 
Total System Charge             0.00000
 
 *** GOStep6 ***

 Energy gradients wrt nuclear displacements
 ==========================================

     Atom      Cartesian (a.u./angstrom)
                 X         Y         Z
 ----------------------------------------
     1 H     0.017209 -0.007483 -0.010320
     2 C     0.051387  0.059664  0.005217
     3 C     0.144892  0.176109 -0.079478
     4 C     0.469832  1.406188 -0.251888
     5 O    -0.470173 -0.087414  0.074502
     6 H    -0.005838 -0.000791  0.000742
     7 H    -0.001162 -0.000100 -0.003916
     8 H    -0.000130 -0.000928  0.000129
     9 C    -0.004128 -0.013823 -0.005842
    10 H    -0.000895  0.000468  0.001070
    11 C     0.000543 -0.001360 -0.002984
    12 C     0.005472 -0.002579 -0.007239
    13 C    -0.000001 -0.001002  0.002606
    14 C    -0.002403 -0.005907 -0.005070
    15 H     0.002656  0.002605 -0.001525
    16 H     0.000601 -0.000183  0.000484
    17 H    -0.000363  0.001463  0.003223
    18 H     0.000704 -0.001873  0.002903
    19 H     0.001576 -0.001302  0.000320
    20 H     0.001770 -0.001904 -0.000055
    21 H     0.003977 -0.000365 -0.000022
    22 H     0.000299 -0.000452  0.000610
    23 H    -0.000356  0.003231  0.002427
    24 H     0.182766  0.333616  0.101378
    25 Sn   -0.368845 -1.838323  0.171131
    26 Cl   -0.015768 -0.013768 -0.000338
    27 Cl   -0.013622 -0.003789  0.001932
 ----------------------------------------
 Mulliken charges used for AMS results%charges...

 dE(predicted):    -0.41877E+00, dE(actual):    -0.49927E+00, Trust radius:    1.000000, all in a.u.
 
----------------------------------------------------------------------
Geometry Convergence after Step   6       (Hartree/Angstrom,Angstrom)
----------------------------------------------------------------------
current energy                               -4.39473864 Hartree
energy change                      -0.49927304     0.00027000    F
constrained gradient max            1.83835112     0.00100000    F
constrained gradient rms            0.27803906     0.00066667    F
gradient max                        1.83835112
gradient rms                        0.27803906
cart. step max                      0.21122038     0.01000000    F
cart. step rms                      0.06337858     0.00666667    F
 
 
--------
Geometry
--------
Formula: C8H15Cl2OSn
Atoms
  Index Symbol   x (angstrom)   y (angstrom)   z (angstrom)
      1      H     0.18201054    -1.90806010     0.45878818
      2      C    -0.85959883    -0.02790500     0.95671967
      3      C     0.29931146    -0.80343364     0.40362921
      4      C     1.34658032    -0.25336547    -0.01651796
      5      O     2.95565921    -0.22195849    -0.75635379
      6      H    -0.68306748     1.04857071     0.95843728
      7      H    -1.93992032     0.04436320     2.85591693
      8      H    -0.20166797    -0.16227708     3.02952994
      9      C    -1.06700244    -0.45120723     2.42791541
     10      H    -1.20029321    -1.52919022     2.52746216
     11      C    -1.83010042     0.08339320    -1.44663254
     12      C    -2.14693143    -0.27828903     0.01595355
     13      C    -3.27836934     0.65648423     0.49166176
     14      C    -2.65985827    -1.73559020     0.06292410
     15      H    -2.95435366    -2.04334829     1.06832832
     16      H    -2.73052669    -0.03595231    -2.05595034
     17      H    -1.06446966    -0.56586123    -1.87887130
     18      H    -1.49657302     1.11633974    -1.55007258
     19      H    -4.15060766     0.54760279    -0.15990563
     20      H    -2.96796069     1.70554697     0.45658456
     21      H    -3.60480840     0.43338126     1.50890022
     22      H    -3.54467617    -1.82245526    -0.57404855
     23      H    -1.92454628    -2.45198132    -0.30937943
     24      H     2.20413269    -0.76629967    -0.68887436
     25     Sn     1.67251685     1.25128925    -0.15599632
     26     Cl     1.83389876     2.32249727     2.00524501
     27     Cl     0.67134612     3.00173951    -1.44101323
 
Total System Charge             0.00000
 
 *** GOStep7 ***

 Energy gradients wrt nuclear displacements
 ==========================================

     Atom      Cartesian (a.u./angstrom)
                 X         Y         Z
 ----------------------------------------
     1 H     0.003544 -0.012652  0.000994
     2 C     0.055196  0.046003  0.000200
     3 C     0.138340  0.125702 -0.075280
     4 C     0.341213  0.862212 -0.155610
     5 O    -0.381649 -0.123140  0.103263
     6 H    -0.004763 -0.003776  0.006064
     7 H     0.000758  0.000145 -0.002402
     8 H    -0.001014  0.000140  0.000684
     9 C     0.001327 -0.006341  0.001012
    10 H     0.000109  0.001738 -0.000535
    11 C    -0.000870  0.003496 -0.000004
    12 C     0.002856 -0.006927 -0.014028
    13 C    -0.000068 -0.000583  0.000717
    14 C    -0.002593 -0.004534 -0.001884
    15 H     0.000490  0.000077 -0.001148
    16 H     0.000784 -0.000862  0.000766
    17 H    -0.000476  0.000593  0.000720
    18 H     0.000906 -0.001006  0.000595
    19 H     0.001030 -0.000870  0.000265
    20 H     0.000602 -0.000845 -0.000330
    21 H     0.001164  0.000197 -0.001159
    22 H     0.000823  0.000860  0.000624
    23 H    -0.001162  0.001239  0.000937
    24 H     0.086460  0.195594  0.054398
    25 Sn   -0.199544 -1.079159  0.068327
    26 Cl   -0.017109 -0.006481  0.017463
    27 Cl   -0.026352  0.009179 -0.004650
 ----------------------------------------
 Mulliken charges used for AMS results%charges...

 dE(predicted):    -0.13962E+00, dE(actual):    -0.22351E+00, Trust radius:    1.000000, all in a.u.
 
----------------------------------------------------------------------
Geometry Convergence after Step   7       (Hartree/Angstrom,Angstrom)
----------------------------------------------------------------------
current energy                               -4.61824476 Hartree
energy change                      -0.22350612     0.00027000    F
constrained gradient max            1.07916139     0.00100000    F
constrained gradient rms            0.17073267     0.00066667    F
gradient max                        1.07916139
gradient rms                        0.17073267
cart. step max                      0.21131058     0.01000000    F
cart. step rms                      0.05730916     0.00666667    F
 
 
--------
Geometry
--------
Formula: C8H15Cl2OSn
Atoms
  Index Symbol   x (angstrom)   y (angstrom)   z (angstrom)
      1      H     0.07682565    -1.97828120     0.47202693
      2      C    -0.89236836    -0.06631754     0.95021141
      3      C     0.24615217    -0.88864249     0.41310404
      4      C     1.33158626    -0.34497063     0.00919384
      5      O     3.12228766    -0.01064792    -0.78019335
      6      H    -0.68655035     1.00969090     0.94569379
      7      H    -1.95677532     0.02761296     2.86713666
      8      H    -0.21610608    -0.19232014     3.01202740
      9      C    -1.09370487    -0.47679556     2.42554675
     10      H    -1.23649512    -1.55465409     2.53476320
     11      C    -1.85947077     0.05390813    -1.45079592
     12      C    -2.18015147    -0.29407880     0.01660229
     13      C    -3.29979109     0.66037399     0.49135898
     14      C    -2.70402319    -1.74379728     0.08192230
     15      H    -2.99581856    -2.03642016     1.09436790
     16      H    -2.76346330    -0.05387069    -2.05847866
     17      H    -1.10416350    -0.60866940    -1.88384218
     18      H    -1.51229502     1.08329576    -1.56383729
     19      H    -4.17736621     0.56265102    -0.15635899
     20      H    -2.97887098     1.70686865     0.45176869
     21      H    -3.62843533     0.44676164     1.51186624
     22      H    -3.59392489    -1.83298527    -0.54955919
     23      H    -1.97633704    -2.47257056    -0.28648402
     24      H     2.39756441    -0.69538896    -0.74677674
     25     Sn     1.73479689     1.32276321    -0.14192560
     26     Cl     1.96771001     2.44172924     1.96892003
     27     Cl     0.83931244     3.08878876    -1.43387824
 
Total System Charge             0.00000
 
 *** GOStep8 ***

 Energy gradients wrt nuclear displacements
 ==========================================

     Atom      Cartesian (a.u./angstrom)
                 X         Y         Z
 ----------------------------------------
     1 H    -0.004614 -0.009873  0.002574
     2 C     0.049030  0.036904  0.000463
     3 C     0.078234  0.071986 -0.043124
     4 C     0.186107  0.370891 -0.067198
     5 O    -0.183942 -0.070950  0.064660
     6 H    -0.005098  0.001963  0.006721
     7 H    -0.000485 -0.000009 -0.000587
     8 H    -0.000653  0.000692  0.000071
     9 C     0.002948 -0.005753 -0.001719
    10 H    -0.000591 -0.000712 -0.000433
    11 C    -0.000542  0.003053  0.000566
    12 C     0.003040 -0.009005 -0.012912
    13 C     0.000591  0.000132  0.000082
    14 C     0.000848 -0.001352 -0.000478
    15 H     0.000123 -0.000260  0.000944
    16 H     0.000295 -0.000859 -0.000008
    17 H     0.000301 -0.000535 -0.000975
    18 H     0.000277 -0.000510 -0.000273
    19 H    -0.000241 -0.000294  0.000072
    20 H    -0.000221  0.000183 -0.000187
    21 H     0.000010  0.000107  0.000708
    22 H    -0.000131  0.000919 -0.000125
    23 H     0.000490 -0.000268  0.000380
    24 H     0.004614  0.062415  0.019824
    25 Sn   -0.100433 -0.457989  0.013499
    26 Cl   -0.012841  0.000684  0.016742
    27 Cl   -0.017119  0.008439  0.000716
 ----------------------------------------
 Mulliken charges used for AMS results%charges...

 dE(predicted):    -0.19788E+00, dE(actual):    -0.20187E+00, Trust radius:    1.000000, all in a.u.
 
----------------------------------------------------------------------
Geometry Convergence after Step   8       (Hartree/Angstrom,Angstrom)
----------------------------------------------------------------------
current energy                               -4.82011452 Hartree
energy change                      -0.20186976     0.00027000    F
constrained gradient max            0.45799369     0.00100000    F
constrained gradient rms            0.07555198     0.00066667    F
gradient max                        0.45799369
gradient rms                        0.07555198
cart. step max                      0.20973761     0.01000000    F
cart. step rms                      0.05248161     0.00666667    F
 
 
--------
Geometry
--------
Formula: C8H15Cl2OSn
Atoms
  Index Symbol   x (angstrom)   y (angstrom)   z (angstrom)
      1      H     0.04394645    -2.04222056     0.48515833
      2      C    -0.91713096    -0.11856792     0.94154508
      3      C     0.22499897    -0.96414434     0.42409915
      4      C     1.33581220    -0.42373105     0.02278490
      5      O     3.25918067     0.19908969    -0.77211922
      6      H    -0.68691478     0.95293648     0.91935348
      7      H    -1.96585469     0.02461333     2.86968502
      8      H    -0.22453502    -0.20277490     2.99830743
      9      C    -1.11090127    -0.49417884     2.42794230
     10      H    -1.25754488    -1.56842525     2.56468749
     11      C    -1.88397961     0.02518368    -1.44434825
     12      C    -2.21209319    -0.32155819     0.02197957
     13      C    -3.30887465     0.65925895     0.49914269
     14      C    -2.77713789    -1.75478981     0.08108821
     15      H    -3.07602633    -2.04416434     1.09236113
     16      H    -2.79101562    -0.05405350    -2.05247517
     17      H    -1.14477908    -0.65306956    -1.88015732
     18      H    -1.51106501     1.04759022    -1.55147104
     19      H    -4.18830043     0.58631319    -0.14961290
     20      H    -2.96218560     1.69783353     0.46320898
     21      H    -3.64421661     0.45077400     1.51869897
     22      H    -3.67069832    -1.81874507    -0.54872681
     23      H    -2.07251879    -2.50299796    -0.29381678
     24      H     2.57457967    -0.59497348    -0.76768153
     25     Sn     1.77939301     1.38308840    -0.13602960
     26     Cl     2.07962010     2.54689536     1.92079664
     27     Cl     0.96836572     3.13885152    -1.46002047
 
Total System Charge             0.00000
 
 *** GOStep9 ***

 Energy gradients wrt nuclear displacements
 ==========================================

     Atom      Cartesian (a.u./angstrom)
                 X         Y         Z
 ----------------------------------------
     1 H    -0.004880 -0.000882  0.001783
     2 C     0.039618  0.030145 -0.002262
     3 C     0.032815  0.037389 -0.018850
     4 C     0.118792  0.153707 -0.035421
     5 O    -0.074938 -0.005457  0.042993
     6 H    -0.004464  0.002224  0.006704
     7 H    -0.000760 -0.000244  0.000765
     8 H    -0.000161  0.000957 -0.000138
     9 C     0.001499 -0.004473 -0.002128
    10 H    -0.000096 -0.000245  0.000046
    11 C     0.000050  0.001792  0.001349
    12 C     0.002571 -0.009371 -0.007596
    13 C    -0.000046 -0.000787 -0.000981
    14 C    -0.000783  0.000512 -0.001155
    15 H    -0.000383 -0.000130  0.000267
    16 H    -0.000256 -0.000587 -0.000116
    17 H     0.000132 -0.000443 -0.000977
    18 H     0.000264  0.000352 -0.000384
    19 H    -0.000927  0.000128  0.000072
    20 H    -0.000094  0.000353 -0.000310
    21 H    -0.000100  0.000149  0.000830
    22 H    -0.000495  0.000055 -0.000277
    23 H    -0.000247 -0.000247 -0.000112
    24 H    -0.040084 -0.010535  0.007063
    25 Sn   -0.053073 -0.202585 -0.007396
    26 Cl   -0.006984  0.003820  0.011328
    27 Cl   -0.006973  0.004406  0.004902
 ----------------------------------------
 Mulliken charges used for AMS results%charges...
 Rebuilding optimization coordinates

 dE(predicted):    -0.77658E-01, dE(actual):    -0.79366E-01, Trust radius:    1.000000, all in a.u.
 
----------------------------------------------------------------------
Geometry Convergence after Step   9       (Hartree/Angstrom,Angstrom)
----------------------------------------------------------------------
current energy                               -4.89948063 Hartree
energy change                      -0.07936611     0.00027000    F
constrained gradient max            0.20256899     0.00100000    F
constrained gradient rms            0.03479299     0.00066667    F
gradient max                        0.20256899
gradient rms                        0.03479299
cart. step max                      0.20859293     0.01000000    F
cart. step rms                      0.05741579     0.00666667    F
 
 
--------
Geometry
--------
Formula: C8H15Cl2OSn
Atoms
  Index Symbol   x (angstrom)   y (angstrom)   z (angstrom)
      1      H     0.02720390    -2.11986419     0.47204382
      2      C    -0.95189275    -0.18732833     0.91928540
      3      C     0.20134431    -1.04608109     0.42343254
      4      C     1.30941108    -0.48903496     0.02499880
      5      O     3.39256078     0.40768261    -0.74301329
      6      H    -0.68291535     0.87433913     0.87297226
      7      H    -1.98182109     0.04204770     2.84774744
      8      H    -0.24608921    -0.23091705     2.97521393
      9      C    -1.14409503    -0.51313604     2.41831572
     10      H    -1.31805693    -1.57866494     2.58859919
     11      C    -1.92159702    -0.01267084    -1.44924928
     12      C    -2.25364668    -0.34638498     0.01963175
     13      C    -3.31423880     0.66740367     0.51077032
     14      C    -2.83984518    -1.76861019     0.09740683
     15      H    -3.12791988    -2.04552065     1.11532145
     16      H    -2.83073986    -0.06413205    -2.05704560
     17      H    -1.20027840    -0.71121937    -1.88138430
     18      H    -1.51953115     0.99930602    -1.55683842
     19      H    -4.19582389     0.62842380    -0.13715747
     20      H    -2.93340676     1.69413457     0.48297731
     21      H    -3.65397665     0.46063992     1.52884375
     22      H    -3.74224724    -1.82614177    -0.51981740
     23      H    -2.15033559    -2.52966169    -0.28090388
     24      H     2.75499927    -0.45011798    -0.78969899
     25     Sn     1.83758795     1.45456618    -0.10762711
     26     Cl     2.23491333     2.64927367     1.88752992
     27     Cl     1.11056091     3.19570242    -1.46797442
 
Total System Charge             0.00000
 
 *** GOStep10 ***

 Energy gradients wrt nuclear displacements
 ==========================================

     Atom      Cartesian (a.u./angstrom)
                 X         Y         Z
 ----------------------------------------
     1 H    -0.005259  0.004858  0.000687
     2 C     0.027578  0.016862 -0.008669
     3 C     0.022952  0.013465 -0.006840
     4 C     0.065890  0.033527 -0.015633
     5 O    -0.005979  0.045494  0.031875
     6 H    -0.002854  0.000613  0.005240
     7 H    -0.000940 -0.000123  0.000549
     8 H     0.000015  0.000759  0.000072
     9 C     0.000171 -0.002022 -0.001133
    10 H     0.000042 -0.000101  0.000050
    11 C     0.001272  0.000777  0.000350
    12 C    -0.002452 -0.003884 -0.005761
    13 C    -0.000073  0.000853  0.000515
    14 C     0.002198  0.000766  0.000909
    15 H    -0.000223 -0.000272  0.000517
    16 H    -0.000152  0.000015 -0.000174
    17 H     0.000023 -0.000234 -0.000491
    18 H    -0.000040  0.000340 -0.000360
    19 H    -0.000353  0.000042  0.000250
    20 H    -0.000251  0.000484 -0.000043
    21 H     0.000095  0.000219  0.000921
    22 H     0.000148  0.000421 -0.000078
    23 H    -0.000220 -0.000751 -0.000176
    24 H    -0.069382 -0.059221 -0.000546
    25 Sn   -0.034280 -0.056008 -0.013826
    26 Cl   -0.001051  0.004403  0.002370
    27 Cl    0.003126 -0.001283  0.009424
 ----------------------------------------
 Mulliken charges used for AMS results%charges...

 dE(predicted):    -0.29798E-01, dE(actual):    -0.41051E-01, Trust radius:    1.000000, all in a.u.
 
----------------------------------------------------------------------
Geometry Convergence after Step  10       (Hartree/Angstrom,Angstrom)
----------------------------------------------------------------------
current energy                               -4.94053153 Hartree
energy change                      -0.04105091     0.00027000    F
constrained gradient max            0.06938128     0.00100000    F
constrained gradient rms            0.01714831     0.00066667    F
gradient max                        0.06938128
gradient rms                        0.01714831
cart. step max                      0.07918014     0.01000000    F
cart. step rms                      0.02390304     0.00666667    F
 
 
--------
Geometry
--------
Formula: C8H15Cl2OSn
Atoms
  Index Symbol   x (angstrom)   y (angstrom)   z (angstrom)
      1      H     0.02855155    -2.14643966     0.46813467
      2      C    -0.96541349    -0.20867204     0.91592239
      3      C     0.19063534    -1.07061691     0.42648110
      4      C     1.28428206    -0.49605597     0.02088390
      5      O     3.45367537     0.46973568    -0.73673985
      6      H    -0.67984256     0.84849577     0.85568862
      7      H    -1.97519471     0.05350004     2.84978109
      8      H    -0.24315229    -0.24673262     2.96683602
      9      C    -1.15004910    -0.51870872     2.41943929
     10      H    -1.33858538    -1.58002614     2.60077372
     11      C    -1.93615430    -0.03214346    -1.44519527
     12      C    -2.26931660    -0.35735446     0.02496542
     13      C    -3.32245356     0.66673903     0.50827916
     14      C    -2.87263265    -1.77242301     0.10111140
     15      H    -3.16452448    -2.04588946     1.11859517
     16      H    -2.84549696    -0.07674422    -2.05312420
     17      H    -1.22010679    -0.73822561    -1.87312667
     18      H    -1.52422807     0.97584952    -1.55487352
     19      H    -4.19660411     0.63899051    -0.15005636
     20      H    -2.92900657     1.68869140     0.48686219
     21      H    -3.67598863     0.46076131     1.52139634
     22      H    -3.77453544    -1.82307973    -0.51762750
     23      H    -2.18865778    -2.53920295    -0.27548324
     24      H     2.83326778    -0.37483365    -0.81483884
     25     Sn     1.87882119     1.48838017    -0.08919107
     26     Cl     2.31409347     2.68087106     1.88824339
     27     Cl     1.14874075     3.20916772    -1.46875707
 
Total System Charge             0.00000
 
 *** GOStep11 ***

 Energy gradients wrt nuclear displacements
 ==========================================

     Atom      Cartesian (a.u./angstrom)
                 X         Y         Z
 ----------------------------------------
     1 H    -0.005402  0.004213  0.000488
     2 C     0.024981  0.014624 -0.011940
     3 C     0.026708  0.006461 -0.004509
     4 C     0.040486  0.007717 -0.008945
     5 O     0.011343  0.042357  0.026499
     6 H    -0.000790  0.000946  0.004074
     7 H    -0.000282 -0.000262  0.000134
     8 H     0.000074  0.000570  0.000049
     9 C     0.000592 -0.001957 -0.000550
    10 H     0.000307 -0.000022  0.000261
    11 C     0.000526 -0.000131  0.000848
    12 C    -0.000825 -0.002422 -0.002049
    13 C    -0.000644  0.000411 -0.000075
    14 C     0.000875  0.001413 -0.000073
    15 H    -0.000143  0.000056  0.000028
    16 H    -0.000205  0.000164 -0.000231
    17 H    -0.000032 -0.000211 -0.000040
    18 H    -0.000035  0.000506 -0.000069
    19 H    -0.000283 -0.000027  0.000083
    20 H    -0.000059  0.000176 -0.000180
    21 H     0.000064  0.000171  0.000135
    22 H    -0.000147 -0.000103 -0.000140
    23 H    -0.000223 -0.000258 -0.000259
    24 H    -0.069814 -0.055877 -0.001980
    25 Sn   -0.032217 -0.018816 -0.010659
    26 Cl    0.000149  0.003427 -0.000739
    27 Cl    0.004995 -0.003125  0.009839
 ----------------------------------------
 Mulliken charges used for AMS results%charges...

 dE(predicted):    -0.70105E-02, dE(actual):    -0.12222E-01, Trust radius:    1.000000, all in a.u.
 
----------------------------------------------------------------------
Geometry Convergence after Step  11       (Hartree/Angstrom,Angstrom)
----------------------------------------------------------------------
current energy                               -4.95275372 Hartree
energy change                      -0.01222218     0.00027000    F
constrained gradient max            0.06980924     0.00100000    F
constrained gradient rms            0.01400858     0.00066667    F
gradient max                        0.06980924
gradient rms                        0.01400858
cart. step max                      0.21075676     0.01000000    F
cart. step rms                      0.05744714     0.00666667    F
 
 
--------
Geometry
--------
Formula: C8H15Cl2OSn
Atoms
  Index Symbol   x (angstrom)   y (angstrom)   z (angstrom)
      1      H     0.02046066    -2.18396920     0.42457772
      2      C    -0.99973496    -0.23441168     0.89178931
      3      C     0.15743028    -1.10338758     0.40494927
      4      C     1.23390596    -0.49459916    -0.00501171
      5      O     3.62557724     0.57559313    -0.69925190
      6      H    -0.68617423     0.81259702     0.80020326
      7      H    -1.98625840     0.10121119     2.82506583
      8      H    -0.26704594    -0.26980434     2.94107482
      9      C    -1.18704437    -0.51111471     2.40162279
     10      H    -1.41755902    -1.56131184     2.60005367
     11      C    -1.99738249    -0.07289341    -1.45517375
     12      C    -2.30873459    -0.37748297     0.02503498
     13      C    -3.34486431     0.65749944     0.51775109
     14      C    -2.91613020    -1.79000152     0.12833242
     15      H    -3.19214548    -2.04958485     1.15385600
     16      H    -2.91512021    -0.12161202    -2.04942271
     17      H    -1.28826143    -0.78582296    -1.88219857
     18      H    -1.58172156     0.93150700    -1.58284959
     19      H    -4.21943638     0.64493340    -0.13994788
     20      H    -2.93725704     1.67380963     0.50205531
     21      H    -3.69931918     0.44900812     1.52991915
     22      H    -3.82658296    -1.84979384    -0.47658274
     23      H    -2.23552338    -2.56094359    -0.24620095
     24      H     3.04402454    -0.21046124    -0.85975169
     25     Sn     2.01389280     1.55191837    -0.03319494
     26     Cl     2.50557595     2.70333568     1.93452178
     27     Cl     1.26555274     3.22981549    -1.45684069
 
Total System Charge             0.00000
 
 *** GOStep12 ***

 Energy gradients wrt nuclear displacements
 ==========================================

     Atom      Cartesian (a.u./angstrom)
                 X         Y         Z
 ----------------------------------------
     1 H    -0.005176  0.001766  0.001114
     2 C     0.018858  0.011686 -0.015706
     3 C     0.022154 -0.012901 -0.001021
     4 C    -0.000613 -0.020378 -0.002170
     5 O     0.013997 -0.003366  0.009922
     6 H     0.002483  0.000919  0.001611
     7 H    -0.000585 -0.000004 -0.000255
     8 H    -0.000128  0.000156 -0.000145
     9 C    -0.001670 -0.001084  0.000181
    10 H    -0.000010 -0.000369 -0.000029
    11 C     0.000368 -0.000823 -0.000367
    12 C     0.000760  0.000624  0.000918
    13 C     0.000784  0.000492  0.001278
    14 C     0.001017  0.001124  0.000507
    15 H     0.000173  0.000010  0.000409
    16 H     0.000094  0.000325 -0.000081
    17 H    -0.000175  0.000127  0.000209
    18 H    -0.000455  0.000053 -0.000172
    19 H     0.000426 -0.000398 -0.000029
    20 H    -0.000080 -0.000053 -0.000022
    21 H     0.000183 -0.000009  0.000353
    22 H    -0.000017 -0.000156  0.000038
    23 H     0.000223 -0.000046 -0.000048
    24 H    -0.040570 -0.004445  0.002692
    25 Sn   -0.018734  0.031778 -0.001403
    26 Cl    0.000861  0.000034 -0.006308
    27 Cl    0.005831 -0.005066  0.008525
 ----------------------------------------
 Mulliken charges used for AMS results%charges...

 dE(predicted):    -0.18317E-01, dE(actual):    -0.17099E-01, Trust radius:    1.000000, all in a.u.
 
----------------------------------------------------------------------
Geometry Convergence after Step  12       (Hartree/Angstrom,Angstrom)
----------------------------------------------------------------------
current energy                               -4.96985273 Hartree
energy change                      -0.01709901     0.00027000    F
constrained gradient max            0.04056612     0.00100000    F
constrained gradient rms            0.00815444     0.00066667    F
gradient max                        0.04056612
gradient rms                        0.00815444
cart. step max                      0.14547282     0.01000000    F
cart. step rms                      0.03527742     0.00666667    F
 
 
--------
Geometry
--------
Formula: C8H15Cl2OSn
Atoms
  Index Symbol   x (angstrom)   y (angstrom)   z (angstrom)
      1      H     0.01553758    -2.18837698     0.39141636
      2      C    -1.02290421    -0.24284007     0.88801497
      3      C     0.13402958    -1.10496492     0.38439261
      4      C     1.21683076    -0.49058026    -0.03266782
      5      O     3.73769832     0.64004211    -0.67558442
      6      H    -0.70771671     0.80031107     0.77322381
      7      H    -1.95915414     0.12958151     2.84018968
      8      H    -0.24635826    -0.27489453     2.92156355
      9      C    -1.18255106    -0.50187773     2.40407160
     10      H    -1.42785806    -1.54563063     2.61734830
     11      C    -2.02925334    -0.09264200    -1.44608954
     12      C    -2.33921494    -0.39218793     0.03546107
     13      C    -3.37969068     0.64540849     0.51276217
     14      C    -2.95588352    -1.80226877     0.13584638
     15      H    -3.23971314    -2.06080778     1.15918648
     16      H    -2.94742094    -0.14207326    -2.03948627
     17      H    -1.32068781    -0.80766144    -1.87057627
     18      H    -1.60956471     0.91007917    -1.57574224
     19      H    -4.24365599     0.63864858    -0.15909645
     20      H    -2.96753851     1.65998174     0.50567951
     21      H    -3.75252020     0.43652141     1.51786652
     22      H    -3.86302943    -1.85727408    -0.47439471
     23      H    -2.27691162    -2.57645066    -0.23471877
     24      H     3.18949736    -0.12734715    -0.87442833
     25     Sn     2.10327103     1.58076103    -0.00970568
     26     Cl     2.60935127     2.69624420     1.96894537
     27     Cl     1.32553540     3.22433242    -1.46909761
 
Total System Charge             0.00000
 
 *** GOStep13 ***

 Energy gradients wrt nuclear displacements
 ==========================================

     Atom      Cartesian (a.u./angstrom)
                 X         Y         Z
 ----------------------------------------
     1 H    -0.003906  0.001170  0.001743
     2 C     0.015255  0.010888 -0.014233
     3 C     0.004185 -0.025646  0.003878
     4 C    -0.002579 -0.022175 -0.007354
     5 O     0.001745 -0.033232 -0.002067
     6 H     0.003281 -0.000547  0.000155
     7 H     0.000755 -0.000438  0.000038
     8 H    -0.000080 -0.000098  0.000084
     9 C    -0.001493 -0.000162  0.001641
    10 H     0.000463  0.000148 -0.000004
    11 C    -0.000392 -0.000573  0.000857
    12 C     0.003254  0.001009  0.005043
    13 C    -0.000663 -0.000200 -0.000851
    14 C    -0.001388  0.000646 -0.000626
    15 H    -0.000047  0.000067 -0.000513
    16 H    -0.000031  0.000131  0.000048
    17 H     0.000008  0.000055  0.000468
    18 H    -0.000069  0.000288  0.000007
    19 H     0.000020 -0.000007 -0.000107
    20 H     0.000045 -0.000206 -0.000165
    21 H    -0.000153  0.000044 -0.001027
    22 H    -0.000166 -0.000444  0.000032
    23 H     0.000087  0.000247 -0.000150
    24 H    -0.017467  0.030730  0.011704
    25 Sn   -0.005846  0.044627  0.003477
    26 Cl    0.001155 -0.001873 -0.007441
    27 Cl    0.004027 -0.004447  0.005363
 ----------------------------------------
 Mulliken charges used for AMS results%charges...

 dE(predicted):    -0.32716E-02, dE(actual):    -0.41253E-02, Trust radius:    1.000000, all in a.u.
 
----------------------------------------------------------------------
Geometry Convergence after Step  13       (Hartree/Angstrom,Angstrom)
----------------------------------------------------------------------
current energy                               -4.97397802 Hartree
energy change                      -0.00412529     0.00027000    F
constrained gradient max            0.04464112     0.00100000    F
constrained gradient rms            0.00898453     0.00066667    F
gradient max                        0.04464112
gradient rms                        0.00898453
cart. step max                      0.12055730     0.01000000    F
cart. step rms                      0.03202281     0.00666667    F
 
 
--------
Geometry
--------
Formula: C8H15Cl2OSn
Atoms
  Index Symbol   x (angstrom)   y (angstrom)   z (angstrom)
      1      H     0.00652177    -2.16583853     0.34982112
      2      C    -1.03995092    -0.23006332     0.86972169
      3      C     0.11941206    -1.08102725     0.35481645
      4      C     1.22458975    -0.49017994    -0.05613484
      5      O     3.83270869     0.66574596    -0.62430094
      6      H    -0.73784122     0.81464388     0.74117848
      7      H    -1.96389469     0.15593008     2.82245393
      8      H    -0.25303221    -0.26074384     2.89872036
      9      C    -1.19308359    -0.48300081     2.38608991
     10      H    -1.44572321    -1.52416846     2.60401335
     11      C    -2.07910893    -0.09655367    -1.45742066
     12      C    -2.36298455    -0.39760064     0.03012664
     13      C    -3.40437597     0.62815351     0.53088667
     14      C    -2.95635352    -1.81679705     0.14795247
     15      H    -3.21997246    -2.07367760     1.17735663
     16      H    -3.00590832    -0.15612518    -2.03619737
     17      H    -1.37021902    -0.80446450    -1.89342642
     18      H    -1.67032448     0.90963511    -1.59417475
     19      H    -4.28126297     0.61664981    -0.12390962
     20      H    -3.00198612     1.64673680     0.52127426
     21      H    -3.75509921     0.41146112     1.54279166
     22      H    -3.87217028    -1.88671775    -0.44739289
     23      H    -2.27250191    -2.58355884    -0.22905602
     24      H     3.31005466    -0.11325179    -0.84264825
     25     Sn     2.18242506     1.58606250     0.00593817
     26     Cl     2.65532033     2.67318292     2.01063646
     27     Cl     1.41488529     3.20960108    -1.49473623
 
Total System Charge             0.00000
 
 *** GOStep14 ***

 Energy gradients wrt nuclear displacements
 ==========================================

     Atom      Cartesian (a.u./angstrom)
                 X         Y         Z
 ----------------------------------------
     1 H    -0.002431  0.001158  0.001831
     2 C     0.012284  0.009448 -0.008969
     3 C    -0.007842 -0.026725  0.005615
     4 C     0.002085 -0.025554 -0.011695
     5 O     0.001418 -0.028683 -0.002212
     6 H     0.002132 -0.001397 -0.000887
     7 H    -0.000030 -0.000012  0.000068
     8 H     0.000055 -0.000092  0.000011
     9 C    -0.002796 -0.000121  0.001001
    10 H    -0.000025 -0.000118 -0.000106
    11 C    -0.000241 -0.000329 -0.000806
    12 C     0.002049  0.001507  0.002582
    13 C     0.000623  0.000136  0.000353
    14 C    -0.000297 -0.000333  0.000312
    15 H     0.000037 -0.000099  0.000110
    16 H     0.000112 -0.000004  0.000059
    17 H    -0.000113  0.000252  0.000001
    18 H    -0.000079 -0.000073 -0.000094
    19 H     0.000225 -0.000030 -0.000014
    20 H    -0.000009 -0.000050  0.000100
    21 H    -0.000089  0.000011  0.000039
    22 H     0.000135  0.000058  0.000104
    23 H     0.000145 -0.000040  0.000042
    24 H    -0.017056  0.030210  0.011821
    25 Sn    0.005811  0.046076  0.004726
    26 Cl    0.001755 -0.002410 -0.006026
    27 Cl    0.002142 -0.002785  0.002036
 ----------------------------------------
 Mulliken charges used for AMS results%charges...

 dE(predicted):    -0.14974E-02, dE(actual):    -0.23067E-02, Trust radius:    1.000000, all in a.u.
 
----------------------------------------------------------------------
Geometry Convergence after Step  14       (Hartree/Angstrom,Angstrom)
----------------------------------------------------------------------
current energy                               -4.97628468 Hartree
energy change                      -0.00230667     0.00027000    F
constrained gradient max            0.04609448     0.00100000    F
constrained gradient rms            0.00887327     0.00066667    F
gradient max                        0.04609448
gradient rms                        0.00887327
cart. step max                      0.16060373     0.01000000    F
cart. step rms                      0.04475840     0.00666667    F
 
 
--------
Geometry
--------
Formula: C8H15Cl2OSn
Atoms
  Index Symbol   x (angstrom)   y (angstrom)   z (angstrom)
      1      H    -0.00684187    -2.10609734     0.28991742
      2      C    -1.06589995    -0.19843237     0.85709254
      3      C     0.09925022    -1.01868041     0.31781985
      4      C     1.23490336    -0.48320243    -0.09160162
      5      O     3.95443868     0.67247521    -0.56045227
      6      H    -0.79694251     0.85341177     0.71484862
      7      H    -1.93685102     0.18314979     2.83066735
      8      H    -0.22425597    -0.23064511     2.86174163
      9      C    -1.17699496    -0.45464958     2.37385104
     10      H    -1.42210817    -1.49617287     2.59789907
     11      C    -2.13716707    -0.08935316    -1.45415411
     12      C    -2.40075992    -0.40231651     0.03441892
     13      C    -3.46604142     0.59457493     0.54436255
     14      C    -2.96044357    -1.83545543     0.15196903
     15      H    -3.21187405    -2.10069706     1.18223763
     16      H    -3.06805133    -0.16540249    -2.02456168
     17      H    -1.41836754    -0.78167684    -1.89983999
     18      H    -1.74762642     0.92472224    -1.58896815
     19      H    -4.34825420     0.56315022    -0.10296229
     20      H    -3.09007514     1.62336025     0.53485415
     21      H    -3.80275276     0.36633021     1.55862605
     22      H    -3.87879657    -1.92267512    -0.43732849
     23      H    -2.26322661    -2.58618924    -0.23215797
     24      H     3.47065838    -0.13816274    -0.78630305
     25     Sn     2.29436945     1.57935957     0.01190524
     26     Cl     2.69276899     2.63170225     2.06117048
     27     Cl     1.53706601     3.17160584    -1.55067168
 
Total System Charge             0.00000
 
 *** GOStep15 ***

 Energy gradients wrt nuclear displacements
 ==========================================

     Atom      Cartesian (a.u./angstrom)
                 X         Y         Z
 ----------------------------------------
     1 H     0.000467  0.001133  0.001095
     2 C     0.010733  0.005872 -0.002214
     3 C    -0.016116 -0.015196  0.007811
     4 C     0.002339 -0.036448 -0.015502
     5 O     0.001553 -0.009670  0.002825
     6 H     0.000792 -0.001709 -0.001905
     7 H     0.000637  0.000005 -0.000063
     8 H     0.000297 -0.000178  0.000065
     9 C    -0.001308 -0.000588  0.000020
    10 H     0.000002  0.000194 -0.000018
    11 C    -0.000502  0.000368 -0.000295
    12 C     0.000754  0.001028  0.001781
    13 C    -0.000822 -0.000277 -0.000993
    14 C    -0.001045 -0.000980 -0.000096
    15 H    -0.000108  0.000001 -0.000221
    16 H    -0.000058 -0.000260  0.000171
    17 H     0.000073 -0.000030 -0.000130
    18 H     0.000101 -0.000215  0.000093
    19 H    -0.000291  0.000377  0.000028
    20 H     0.000073  0.000002  0.000066
    21 H    -0.000280  0.000002 -0.000337
    22 H     0.000014  0.000150  0.000030
    23 H     0.000002  0.000068  0.000047
    24 H    -0.022220  0.015361  0.007290
    25 Sn    0.024305  0.043111  0.005353
    26 Cl    0.002116 -0.002125 -0.001511
    27 Cl   -0.001507  0.000003 -0.003388
 ----------------------------------------
 Mulliken charges used for AMS results%charges...
 Rebuilding optimization coordinates

 dE(predicted):    -0.20689E-02, dE(actual):    -0.28061E-02, Trust radius:    1.000000, all in a.u.
 
----------------------------------------------------------------------
Geometry Convergence after Step  15       (Hartree/Angstrom,Angstrom)
----------------------------------------------------------------------
current energy                               -4.97909074 Hartree
energy change                      -0.00280606     0.00027000    F
constrained gradient max            0.04313587     0.00100000    F
constrained gradient rms            0.00838316     0.00066667    F
gradient max                        0.04313587
gradient rms                        0.00838316
cart. step max                      0.10041155     0.01000000    F
cart. step rms                      0.03516824     0.00666667    F
 
 
--------
Geometry
--------
Formula: C8H15Cl2OSn
Atoms
  Index Symbol   x (angstrom)   y (angstrom)   z (angstrom)
      1      H    -0.01335278    -2.04973362     0.24908289
      2      C    -1.08369879    -0.16674366     0.84273327
      3      C     0.09237756    -0.96016747     0.29474113
      4      C     1.24483570    -0.47016734    -0.10952875
      5      O     4.02517290     0.63580512    -0.51014413
      6      H    -0.84576082     0.89322567     0.70037177
      7      H    -1.94480937     0.19599263     2.82127882
      8      H    -0.22563072    -0.19173390     2.83934683
      9      C    -1.17805622    -0.42938090     2.35774387
     10      H    -1.40676335    -1.47485314     2.58096646
     11      C    -2.18244730    -0.07184366    -1.45817326
     12      C    -2.42280673    -0.40264084     0.03039203
     13      C    -3.50015617     0.56524063     0.56935205
     14      C    -2.94179013    -1.85024640     0.14964464
     15      H    -3.17098069    -2.12531129     1.18267921
     16      H    -3.11765129    -0.16139452    -2.01962352
     17      H    -1.45504500    -0.74602805    -1.91786547
     18      H    -1.81403479     0.95080063    -1.58791303
     19      H    -4.39649232     0.51388514    -0.05688307
     20      H    -3.15027214     1.60323501     0.55591267
     21      H    -3.80535610     0.32447531     1.59102640
     22      H    -3.86632310    -1.95886480    -0.42639969
     23      H    -2.23157192    -2.58152086    -0.24763020
     24      H     3.56505960    -0.19525032    -0.72582626
     25     Sn     2.36450405     1.56093292     0.00772639
     26     Cl     2.68369637     2.61107106     2.08233794
     27     Cl     1.63747757     3.13525020    -1.60096872
 
Total System Charge             0.00000
 
 *** GOStep16 ***

 Energy gradients wrt nuclear displacements
 ==========================================

     Atom      Cartesian (a.u./angstrom)
                 X         Y         Z
 ----------------------------------------
     1 H     0.002158  0.000423  0.000149
     2 C     0.009379  0.002767  0.000930
     3 C    -0.010838 -0.000877  0.007222
     4 C    -0.004225 -0.046531 -0.014649
     5 O    -0.001072 -0.001808  0.004684
     6 H    -0.000532 -0.000804 -0.001841
     7 H    -0.000117  0.000443 -0.000123
     8 H     0.000258 -0.000148 -0.000041
     9 C    -0.000666 -0.000878 -0.001590
    10 H    -0.000338  0.000135 -0.000081
    11 C     0.000005  0.000498 -0.000842
    12 C    -0.002560 -0.000120 -0.001465
    13 C     0.000323  0.000157  0.000219
    14 C     0.000024 -0.001335  0.000307
    15 H    -0.000041  0.000026  0.000130
    16 H     0.000031 -0.000239  0.000151
    17 H     0.000022 -0.000014 -0.000355
    18 H     0.000177 -0.000211  0.000037
    19 H    -0.000005  0.000188  0.000036
    20 H     0.000070  0.000183  0.000201
    21 H    -0.000005 -0.000022  0.000559
    22 H     0.000078  0.000327  0.000020
    23 H    -0.000060 -0.000053  0.000151
    24 H    -0.022421  0.006976  0.004308
    25 Sn    0.032521  0.040240  0.005737
    26 Cl    0.001635 -0.001075  0.002541
    27 Cl   -0.003801  0.001751 -0.006394
 ----------------------------------------
 Mulliken charges used for AMS results%charges...

 dE(predicted):    -0.11188E-02, dE(actual):    -0.16979E-02, Trust radius:    1.000000, all in a.u.
 
----------------------------------------------------------------------
Geometry Convergence after Step  16       (Hartree/Angstrom,Angstrom)
----------------------------------------------------------------------
current energy                               -4.98078863 Hartree
energy change                      -0.00169789     0.00027000    F
constrained gradient max            0.04651371     0.00100000    F
constrained gradient rms            0.00865325     0.00066667    F
gradient max                        0.04651371
gradient rms                        0.00865325
cart. step max                      0.03026324     0.01000000    F
cart. step rms                      0.00995054     0.00666667    F
 
 
--------
Geometry
--------
Formula: C8H15Cl2OSn
Atoms
  Index Symbol   x (angstrom)   y (angstrom)   z (angstrom)
      1      H    -0.01629948    -2.03216122     0.24016815
      2      C    -1.08738001    -0.15714416     0.84446875
      3      C     0.09248300    -0.94215654     0.29162782
      4      C     1.24763533    -0.46182460    -0.11300752
      5      O     4.03206482     0.61216339    -0.50474441
      6      H    -0.85790502     0.90561235     0.70716163
      7      H    -1.94398643     0.19114743     2.82855856
      8      H    -0.22133070    -0.17889713     2.83791469
      9      C    -1.17313243    -0.42487721     2.35949042
     10      H    -1.39015036    -1.47323585     2.58091498
     11      C    -2.18822295    -0.06379532    -1.45377509
     12      C    -2.42642615    -0.40052866     0.03329007
     13      C    -3.51419596     0.55629232     0.57069340
     14      C    -2.93518937    -1.85169644     0.14653383
     15      H    -3.16279906    -2.13260825     1.17830769
     16      H    -3.12232807    -0.15852238    -2.01633408
     17      H    -1.45550289    -0.73143768    -1.91455088
     18      H    -1.82764155     0.96200954    -1.58039640
     19      H    -4.40929403     0.49505938    -0.05650171
     20      H    -3.17517752     1.59781396     0.55671279
     21      H    -3.81813851     0.31284299     1.59190621
     22      H    -3.85876756    -1.96489396    -0.43027905
     23      H    -2.21981830    -2.57629833    -0.25363813
     24      H     3.57635746    -0.22203519    -0.71183209
     25     Sn     2.37303863     1.55198159    -0.00002542
     26     Cl     2.67449035     2.61024990     2.07606568
     27     Cl     1.66774081     3.13097365    -1.61434959
 
Total System Charge             0.00000
 
 *** GOStep17 ***

 Energy gradients wrt nuclear displacements
 ==========================================

     Atom      Cartesian (a.u./angstrom)
                 X         Y         Z
 ----------------------------------------
     1 H     0.002072 -0.000127 -0.000192
     2 C     0.008783  0.001629  0.000544
     3 C    -0.008392  0.002892  0.007160
     4 C    -0.003700 -0.047771 -0.014453
     5 O    -0.002144 -0.004546  0.003699
     6 H    -0.000715 -0.000531 -0.001331
     7 H     0.000176  0.000287  0.000038
     8 H     0.000156 -0.000168  0.000016
     9 C    -0.000172 -0.000463 -0.001331
    10 H    -0.000244  0.000194 -0.000065
    11 C    -0.000226  0.000488 -0.000181
    12 C    -0.002369 -0.000170 -0.000923
    13 C    -0.000348 -0.000104 -0.000383
    14 C    -0.000099 -0.000748  0.000069
    15 H    -0.000081  0.000073 -0.000016
    16 H    -0.000043 -0.000171  0.000076
    17 H     0.000025 -0.000112 -0.000179
    18 H     0.000048 -0.000264  0.000082
    19 H    -0.000168  0.000226  0.000028
    20 H     0.000056  0.000086  0.000072
    21 H    -0.000033 -0.000031  0.000136
    22 H    -0.000013  0.000224 -0.000026
    23 H    -0.000033  0.000056  0.000082
    24 H    -0.020387  0.007655  0.004218
    25 Sn    0.030314  0.039618  0.005866
    26 Cl    0.001458 -0.000441  0.003584
    27 Cl   -0.003920  0.002219 -0.006592
 ----------------------------------------
 Mulliken charges used for AMS results%charges...

 dE(predicted):    -0.48105E-03, dE(actual):    -0.90526E-03, Trust radius:    1.000000, all in a.u.
 
----------------------------------------------------------------------
Geometry Convergence after Step  17       (Hartree/Angstrom,Angstrom)
----------------------------------------------------------------------
current energy                               -4.98169389 Hartree
energy change                      -0.00090526     0.00027000    F
constrained gradient max            0.04775307     0.00100000    F
constrained gradient rms            0.00850915     0.00066667    F
gradient max                        0.04775307
gradient rms                        0.00850915
cart. step max                      0.21386647     0.01000000    F
cart. step rms                      0.06398517     0.00666667    F
 
 
--------
Geometry
--------
Formula: C8H15Cl2OSn
Atoms
  Index Symbol   x (angstrom)   y (angstrom)   z (angstrom)
      1      H    -0.03191863    -1.91951293     0.18646812
      2      C    -1.11748249    -0.10090215     0.84600183
      3      C     0.09310091    -0.82798851     0.27039499
      4      C     1.26229499    -0.40028392    -0.13206030
      5      O     4.06806365     0.46319710    -0.45079689
      6      H    -0.94425051     0.97763927     0.74073060
      7      H    -1.97747204     0.14580567     2.84681409
      8      H    -0.23236684    -0.09093971     2.83265113
      9      C    -1.16706467    -0.40106262     2.35899095
     10      H    -1.30172776    -1.46655353     2.56515249
     11      C    -2.22869804    -0.00989525    -1.43659834
     12      C    -2.44814333    -0.39344456     0.04063187
     13      C    -3.57438990     0.49988089     0.60439601
     14      C    -2.88886853    -1.86653088     0.12308667
     15      H    -3.09024839    -2.18341136     1.14997281
     16      H    -3.15799702    -0.12890014    -2.00286181
     17      H    -1.46841227    -0.63365070    -1.91372277
     18      H    -1.91370542     1.03396930    -1.53762615
     19      H    -4.47483852     0.39156118    -0.00845228
     20      H    -3.29297258     1.55820616     0.59013146
     21      H    -3.84696870     0.23475194     1.62859689
     22      H    -3.81370955    -2.00931387    -0.44537322
     23      H    -2.14841419    -2.54911128    -0.30420593
     24      H     3.65152801    -0.39318910    -0.58747975
     25     Sn     2.41676353     1.49542309    -0.05647263
     26     Cl     2.60641506     2.63846910     2.00279571
     27     Cl     1.88160728     3.08982038    -1.71678526
 
Total System Charge             0.00000
 
 *** GOStep18 ***

 Energy gradients wrt nuclear displacements
 ==========================================

     Atom      Cartesian (a.u./angstrom)
                 X         Y         Z
 ----------------------------------------
     1 H     0.001135 -0.002158 -0.001929
     2 C     0.000609 -0.003416 -0.002139
     3 C     0.007924  0.023731  0.005790
     4 C     0.002970 -0.049226 -0.012195
     5 O    -0.011392 -0.027377 -0.001771
     6 H    -0.002032  0.001193  0.001112
     7 H     0.000119  0.000042  0.000424
     8 H    -0.000377 -0.000223  0.000110
     9 C     0.001178  0.001282 -0.000049
    10 H    -0.000086  0.000089  0.000126
    11 C     0.000756  0.000074  0.001633
    12 C    -0.004228 -0.002315 -0.001582
    13 C     0.000399 -0.000122  0.000368
    14 C     0.000471  0.001128 -0.000139
    15 H    -0.000177 -0.000047 -0.000165
    16 H    -0.000014  0.000202 -0.000106
    17 H     0.000032 -0.000156  0.000113
    18 H    -0.000094  0.000071 -0.000105
    19 H     0.000149 -0.000232 -0.000036
    20 H    -0.000048  0.000001 -0.000177
    21 H     0.000155  0.000141 -0.000202
    22 H    -0.000076 -0.000243 -0.000069
    23 H    -0.000178  0.000078 -0.000056
    24 H    -0.005267  0.017256  0.004135
    25 Sn    0.011694  0.032928  0.005415
    26 Cl    0.000237  0.003151  0.007796
    27 Cl   -0.003858  0.004149 -0.006301
 ----------------------------------------
 Mulliken charges used for AMS results%charges...

 dE(predicted):    -0.41038E-02, dE(actual):    -0.41425E-02, Trust radius:    1.000000, all in a.u.
 
----------------------------------------------------------------------
Geometry Convergence after Step  18       (Hartree/Angstrom,Angstrom)
----------------------------------------------------------------------
current energy                               -4.98583636 Hartree
energy change                      -0.00414247     0.00027000    F
constrained gradient max            0.04921984     0.00100000    F
constrained gradient rms            0.00855339     0.00066667    F
gradient max                        0.04921984
gradient rms                        0.00855339
cart. step max                      0.14881003     0.01000000    F
cart. step rms                      0.03741335     0.00666667    F
 
 
--------
Geometry
--------
Formula: C8H15Cl2OSn
Atoms
  Index Symbol   x (angstrom)   y (angstrom)   z (angstrom)
      1      H    -0.04324980    -1.86035389     0.15173508
      2      C    -1.13808492    -0.07394615     0.84742671
      3      C     0.08664237    -0.76930376     0.25390372
      4      C     1.26257206    -0.36126950    -0.14674658
      5      O     4.10464085     0.40608188    -0.40771608
      6      H    -0.98986503     1.00992548     0.75709889
      7      H    -1.98923028     0.11339044     2.85891788
      8      H    -0.23647769    -0.05567797     2.82649912
      9      C    -1.16297343    -0.39575066     2.35744999
     10      H    -1.25495732    -1.46830525     2.55091596
     11      C    -2.26562038     0.01608729    -1.42799871
     12      C    -2.46400498    -0.38793321     0.04669074
     13      C    -3.61439231     0.46771521     0.61997871
     14      C    -2.86880814    -1.87136547     0.11413814
     15      H    -3.05300016    -2.20571419     1.13878572
     16      H    -3.19531667    -0.12026269    -1.98989990
     17      H    -1.49287176    -0.58288382    -1.91656852
     18      H    -1.97815719     1.06882047    -1.51959862
     19      H    -4.51325492     0.33691868     0.00902613
     20      H    -3.36456922     1.53387984     0.61206539
     21      H    -3.87650057     0.18740045     1.64264198
     22      H    -3.79516188    -2.02917241    -0.44790568
     23      H    -2.11682141    -2.53130265    -0.32845834
     24      H     3.72500222    -0.46649120    -0.49835514
     25     Sn     2.45472332     1.47001210    -0.08405734
[...]
     4     C       0.000528   0.000071  -0.000240
     5     O       0.000009   0.000024   0.000000
     6     H       0.193742   0.905466   0.007482
     7     H       0.084259  -0.049182  -0.049695
     8     H      -0.125093  -0.027761  -0.060451
     9     C       0.003996   0.010288   0.009224
    10     H      -0.006420  -0.045983   0.001651
    11     C       0.001083   0.001154   0.005116
    12     C      -0.000480  -0.001368  -0.000161
    13     C       0.005314   0.001070  -0.001622
    14     C      -0.001698   0.003418   0.000812
    15     H      -0.003658  -0.006234   0.015586
    16     H      -0.057271  -0.000003  -0.033299
    17     H       0.038594  -0.030490  -0.026555
    18     H       0.006319   0.020334  -0.000922
    19     H      -0.049644   0.002133  -0.036947
    20     H       0.001653   0.010636   0.001430
    21     H      -0.014211  -0.021272   0.054209
    22     H      -0.004846   0.000192  -0.002224
    23     H       0.030956  -0.027497  -0.021893
    24     H      -0.000169   0.000025  -0.000014
    25    Sn       0.000020  -0.000023  -0.000012
    26    Cl      -0.000070  -0.000018   0.000016
    27    Cl      -0.000004   0.000009  -0.000005
 
 Mode:    73      Frequency (cm-1):     3065.0803     Intensity (km/mol):        0.2320
 Index  Atom      ---- Displacements (x/y/z) ----
     1     H       0.000376   0.006700   0.000810
     2     C      -0.000061  -0.000491  -0.000003
     3     C      -0.000040  -0.000464  -0.000068
     4     C       0.000000  -0.000006   0.000017
     5     O       0.000008   0.000003   0.000003
     6     H       0.002262   0.006008  -0.000612
     7     H       0.017469  -0.011186  -0.010457
     8     H      -0.000743   0.000660   0.000097
     9     C      -0.001110   0.002238   0.000830
    10     H      -0.003240  -0.016974   0.001477
    11     C       0.040749   0.032532   0.018949
    12     C      -0.000227  -0.000157  -0.000091
    13     C      -0.051793  -0.037973  -0.035487
    14     C       0.005828  -0.002803   0.005222
    15     H       0.009779   0.018086  -0.044278
    16     H      -0.376611  -0.005426  -0.218947
    17     H       0.014711   0.006476   0.003394
    18     H      -0.122955  -0.389126  -0.009016
    19     H       0.487713  -0.008574   0.352242
    20     H       0.153008   0.486259   0.045787
    21     H      -0.023800  -0.023777   0.024758
    22     H      -0.059668  -0.001682  -0.035185
    23     H      -0.018996   0.017394   0.016760
    24     H      -0.000010  -0.000057   0.000014
    25    Sn      -0.000004  -0.000001  -0.000006
    26    Cl      -0.000001   0.000004   0.000007
    27    Cl       0.000008   0.000001   0.000004
 
 Mode:    74      Frequency (cm-1):     3067.0375     Intensity (km/mol):        7.4892
 Index  Atom      ---- Displacements (x/y/z) ----
     1     H      -0.004090  -0.039298  -0.004280
     2     C       0.000398   0.001146   0.000044
     3     C       0.000282   0.003138   0.000285
     4     C      -0.000039  -0.000008   0.000050
     5     O      -0.000003  -0.000007   0.000002
     6     H      -0.003683  -0.013121  -0.000963
     7     H      -0.033741   0.018637   0.020146
     8     H       0.057478   0.011866   0.029176
     9     C      -0.002927  -0.008774  -0.003779
    10     H       0.010832   0.073209  -0.004361
    11     C       0.032913   0.017029   0.011189
    12     C      -0.000449   0.000751  -0.000032
    13     C       0.013248   0.006330   0.014816
    14     C      -0.069143   0.028959  -0.028404
    15     H      -0.062908  -0.084984   0.217739
    16     H      -0.279412  -0.006730  -0.163691
    17     H      -0.039618   0.043364   0.036357
    18     H      -0.072729  -0.241344  -0.004759
    19     H      -0.145376   0.000228  -0.103261
    20     H      -0.032087  -0.107132  -0.007930
    21     H       0.021866   0.029134  -0.066082
    22     H       0.574109   0.020926   0.359824
    23     H       0.315604  -0.283249  -0.238406
    24     H       0.000053  -0.000027   0.000027
    25    Sn      -0.000003   0.000007  -0.000003
    26    Cl       0.000005  -0.000008  -0.000003
    27    Cl       0.000005  -0.000005   0.000009
 
 Mode:    75      Frequency (cm-1):     3072.7814     Intensity (km/mol):       59.7759
 Index  Atom      ---- Displacements (x/y/z) ----
     1     H      -0.001778  -0.011463  -0.001185
     2     C       0.000037  -0.001815   0.000204
     3     C       0.000196   0.000839   0.000004
     4     C      -0.000037   0.000050   0.000056
     5     O      -0.000031  -0.000012   0.000005
     6     H       0.008006   0.026689   0.001931
     7     H       0.003438  -0.000376  -0.000471
     8     H      -0.063996  -0.014893  -0.033494
     9     C       0.005703   0.005596   0.002687
    10     H      -0.007027  -0.051206   0.003387
    11     C      -0.035972  -0.045495  -0.024616
    12     C      -0.002444  -0.001490  -0.000966
    13     C      -0.035798  -0.027702  -0.021475
    14     C      -0.040135   0.014732  -0.001209
    15     H      -0.008441   0.006994  -0.008995
    16     H       0.381609   0.001668   0.223206
    17     H      -0.103084   0.065577   0.061684
    18     H       0.156005   0.478315   0.008999
    19     H       0.330777  -0.008036   0.237368
    20     H       0.107549   0.344858   0.034899
    21     H      -0.006215  -0.003194  -0.013743
    22     H       0.281789   0.013212   0.180543
    23     H       0.212487  -0.189710  -0.154545
    24     H       0.000072   0.000196  -0.000082
    25    Sn       0.000011   0.000002  -0.000001
    26    Cl      -0.000009  -0.000008  -0.000006
    27    Cl      -0.000011  -0.000004   0.000008
 
 Mode:    76      Frequency (cm-1):     3077.1666     Intensity (km/mol):       15.8021
 Index  Atom      ---- Displacements (x/y/z) ----
     1     H      -0.003635  -0.038626  -0.004340
     2     C       0.001510   0.007126   0.000032
     3     C       0.000233   0.002906   0.000258
     4     C      -0.000001  -0.000022  -0.000003
     5     O      -0.000000  -0.000007  -0.000005
     6     H      -0.018373  -0.081722  -0.000326
     7     H       0.107059  -0.059066  -0.065462
     8     H      -0.182710  -0.037460  -0.092834
     9     C       0.009802   0.031799   0.011637
    10     H      -0.041535  -0.281842   0.020288
    11     C       0.018092  -0.004890  -0.000209
    12     C       0.000021   0.000870   0.000800
    13     C       0.012319   0.030827  -0.026793
    14     C      -0.024236   0.002739   0.066910
    15     H       0.106394   0.231967  -0.551786
    16     H      -0.119655  -0.004842  -0.072028
    17     H      -0.094974   0.080300   0.071034
    18     H      -0.001536  -0.019120   0.000501
    19     H       0.031161   0.008030   0.013660
    20     H      -0.082014  -0.246017  -0.035297
    21     H      -0.093151  -0.132571   0.338156
    22     H      -0.120511  -0.002348  -0.051868
    23     H       0.302381  -0.266599  -0.196582
    24     H       0.000030  -0.000025   0.000053
    25    Sn      -0.000005   0.000006   0.000006
    26    Cl       0.000012  -0.000006  -0.000012
    27    Cl       0.000001  -0.000003   0.000000
 
 Mode:    77      Frequency (cm-1):     3080.0765     Intensity (km/mol):       22.7973
 Index  Atom      ---- Displacements (x/y/z) ----
     1     H      -0.001093  -0.017307  -0.001648
     2     C       0.001637   0.005041   0.000202
     3     C       0.000059   0.001448   0.000078
     4     C      -0.000164  -0.000053  -0.000113
     5     O       0.000002  -0.000003  -0.000009
     6     H      -0.012998  -0.057514   0.000315
     7     H      -0.170857   0.124581   0.122936
     8     H      -0.505178  -0.125630  -0.267567
     9     C       0.059179   0.023612   0.010416
    10     H      -0.029376  -0.281336   0.019662
    11     C      -0.006856   0.014472   0.005739
    12     C      -0.000057  -0.000358   0.000964
    13     C      -0.002884  -0.034065   0.050886
    14     C      -0.003622   0.000012   0.015485
    15     H       0.025287   0.054854  -0.127923
    16     H       0.007603   0.003892   0.005615
    17     H       0.106730  -0.083761  -0.076587
    18     H      -0.032727  -0.091064  -0.002117
    19     H      -0.190795  -0.009539  -0.122958
    20     H       0.073384   0.210496   0.036344
    21     H       0.148858   0.206723  -0.522874
    22     H      -0.042331  -0.001523  -0.020444
    23     H       0.060372  -0.053380  -0.039152
    24     H      -0.000036   0.000052   0.000044
    25    Sn      -0.000002   0.000000   0.000010
    26    Cl       0.000009   0.000001  -0.000013
    27    Cl      -0.000001   0.000001  -0.000009
 
 Mode:    78      Frequency (cm-1):     3083.6612     Intensity (km/mol):       34.4640
 Index  Atom      ---- Displacements (x/y/z) ----
     1     H       0.001743   0.014770   0.001798
     2     C      -0.000322  -0.001188  -0.000208
     3     C      -0.000098  -0.001023  -0.000080
     4     C       0.000091  -0.000022   0.000193
     5     O       0.000027   0.000021  -0.000005
     6     H       0.003565   0.014268   0.000483
     7     H      -0.035860   0.024727   0.025405
     8     H      -0.065693  -0.017005  -0.034839
     9     C       0.008604   0.001276   0.000641
    10     H      -0.001391  -0.022657   0.001295
    11     C       0.063143  -0.058136  -0.018888
    12     C       0.001522  -0.001411   0.000057
    13     C       0.001907  -0.007348   0.015156
    14     C       0.015594  -0.005208  -0.007811
    15     H      -0.010543  -0.028074   0.065961
    16     H      -0.309705  -0.026086  -0.193915
    17     H      -0.561042   0.451023   0.411321
    18     H       0.111515   0.271976   0.005067
    19     H      -0.083361  -0.001676  -0.054015
    20     H       0.014375   0.040558   0.009234
    21     H       0.038903   0.054065  -0.134895
    22     H      -0.070139  -0.004139  -0.048239
    23     H      -0.108599   0.098875   0.075658
    24     H      -0.000156  -0.000126   0.000044
    25    Sn      -0.000007  -0.000017  -0.000000
    26    Cl      -0.000005   0.000019   0.000010
    27    Cl       0.000003   0.000013  -0.000010
 
 Mode:    79      Frequency (cm-1):     3084.8422     Intensity (km/mol):       37.5581
 Index  Atom      ---- Displacements (x/y/z) ----
     1     H       0.000948  -0.004069  -0.001024
     2     C       0.002325   0.009115   0.000191
     3     C       0.000092   0.000292   0.000001
     4     C      -0.000113  -0.000079  -0.000002
     5     O       0.000009  -0.000000  -0.000001
     6     H      -0.022895  -0.103306   0.000234
     7     H       0.036540  -0.006043  -0.014059
     8     H      -0.385199  -0.087347  -0.198837
     9     C       0.034387   0.048072   0.015068
    10     H      -0.067509  -0.482942   0.033219
    11     C      -0.001022   0.002576   0.000760
    12     C       0.000053   0.000684  -0.001680
    13     C       0.003240   0.024120  -0.033634
    14     C       0.010563   0.002428  -0.052528
    15     H      -0.089362  -0.190235   0.450529
    16     H       0.008173   0.000359   0.006341
    17     H       0.012425  -0.010441  -0.008761
    18     H      -0.008758  -0.023452   0.000119
    19     H       0.117073   0.006301   0.074329
    20     H      -0.053102  -0.156778  -0.025434
    21     H      -0.101624  -0.139187   0.356447
    22     H       0.139765   0.003211   0.070792
    23     H      -0.176107   0.155217   0.111350
    24     H       0.000013  -0.000113   0.000044
    25    Sn      -0.000006   0.000004   0.000001
    26    Cl       0.000013   0.000000  -0.000007
    27    Cl       0.000003  -0.000001  -0.000000
 
 Mode:    80      Frequency (cm-1):     3094.6080     Intensity (km/mol):       14.7846
 Index  Atom      ---- Displacements (x/y/z) ----
     1     H      -0.000054  -0.006087  -0.001530
     2     C       0.000156   0.006111   0.000081
     3     C       0.000116   0.000122  -0.000025
     4     C       0.000148   0.000009   0.000014
     5     O      -0.000014  -0.000013   0.000002
     6     H      -0.011917  -0.062857   0.000992
     7     H       0.592692  -0.372458  -0.389885
     8     H       0.204446   0.070669   0.117958
     9     C      -0.059686   0.058258   0.020590
    10     H      -0.077175  -0.397415   0.028308
    11     C      -0.000834   0.001096   0.000255
    12     C       0.000064  -0.000301   0.000535
    13     C      -0.002521  -0.016336   0.026249
    14     C       0.000127   0.000943  -0.004286
    15     H      -0.008221  -0.015916   0.041463
    16     H       0.003612   0.000138   0.001816
    17     H       0.008383  -0.006817  -0.006170
    18     H      -0.001880  -0.005481  -0.000314
    19     H      -0.084637  -0.004794  -0.055115
    20     H       0.031556   0.089877   0.016926
    21     H       0.078469   0.111239  -0.281702
    22     H       0.013932  -0.000042   0.008001
    23     H      -0.005970   0.005278   0.002268
    24     H       0.000124   0.000012  -0.000018
    25    Sn       0.000000   0.000011   0.000001
    26    Cl       0.000007  -0.000011  -0.000008
    27    Cl      -0.000002  -0.000005   0.000004
 
 Mode:    81      Frequency (cm-1):     3771.4022     Intensity (km/mol):       67.7536
 Index  Atom      ---- Displacements (x/y/z) ----
     1     H      -0.000354  -0.000186   0.000278
     2     C       0.000020  -0.000016  -0.000013
     3     C       0.000001  -0.000092  -0.000021
     4     C      -0.000230   0.000082  -0.000009
     5     O       0.006826  -0.057379   0.024124
     6     H       0.000029  -0.000012  -0.000005
     7     H      -0.000060  -0.000012   0.000156
     8     H       0.000057   0.000072  -0.000015
     9     C      -0.000016   0.000018  -0.000009
    10     H      -0.000034  -0.000150  -0.000004
    11     C       0.000011   0.000003  -0.000000
    12     C       0.000008   0.000007   0.000016
    13     C       0.000000  -0.000001  -0.000009
    14     C       0.000003   0.000001  -0.000007
    15     H      -0.000010  -0.000037   0.000084
    16     H      -0.000156  -0.000010  -0.000057
    17     H      -0.000013   0.000082   0.000089
    18     H       0.000014  -0.000112   0.000013
    19     H      -0.000100   0.000013  -0.000024
    20     H       0.000017  -0.000039  -0.000006
    21     H      -0.000017  -0.000035   0.000085
    22     H      -0.000101  -0.000019  -0.000043
    23     H       0.000007   0.000053   0.000025
    24     H      -0.091176   0.916441  -0.384579
    25    Sn      -0.000100  -0.000071   0.000024
    26    Cl      -0.000039   0.000049   0.000031
    27    Cl      -0.000021   0.000037  -0.000061

PES point character: Geometry corresponds to a local minimum on the PES.




 ============================
 Statistical Thermal Analysis  ***  ideal gas assumed  ***
 ============================
  
 Pressure:                  1.000000 atm.
 Temperature:             298.150000 K



 Moments of Inertia [amu*bohr^2] and principal axis
 ==================================================

        2246.0453       7387.2780       7794.2875
 ------------------------------------------------
          -0.8962          0.1729          0.4085
          -0.4045          0.0593         -0.9126
           0.1820          0.9832         -0.0168


 The rotational contribution to the molecular entropy includes
 a term, dependent on the symmetry number sigma. The results 
 reported below were computed using sigma = 1, determined from
 the point group symmetry of the input geometry (NOSYM). 
 If this is not the correct symmetry, try symmetrizing the molecule before
 running the calculation (note: linear molecules should be aligned along one
 of the Cartesian axes).
 Contributions from frequencies below 20 1/cm are not included in vibrational sums.
 Their contributions, if any, are reported separately.


     Temp                                                        Transl      Rotat     Vibrat     Total
     ----                                                        ------      -----     ------     -----

     298.15   Entropy (cal/mol-K):                               43.157     33.225     61.821    138.203
              Nuclear Internal Energy (kcal/mol):                 0.889      0.889    140.412    142.190
              Constant Volume Heat Capacity (cal/mol-K):          2.981      2.981     54.218     60.180
          (c) Constant Volume Heat Capacity (cal/mol-K):          2.981      2.981     49.607     55.569

 Contributions from frequencies below 20 1/cm
 Frequency (1/cm):                                    9.159
 Entropy (cal/mol-K):                                 8.186
 Nuclear Internal Energy (kcal/mol):                  0.593
 Constant Volume Heat Capacity (cal/mol-K):           1.987

       Summary of energy terms
                                                   hartree              eV         kcal/mol           kJ/mol
                                      --------------------     -----------       ----------      -----------
      Energy from Engine:               -4.997623786415448       -135.9923         -3136.06        -13121.26
      Nuclear Internal Energy:           0.226593730780218          6.1659           142.19           594.92
  (c) Nuclear Internal Energy:           0.224226701371255          6.1015           140.70           588.71
      Internal Energy U:                -4.771030055635230       -129.8263         -2993.87        -12526.34
      pV/n = RT:                         0.000944186013486          0.0257             0.59             2.48
      Enthalpy H:                       -4.770085869621744       -129.8006         -2993.27        -12523.86
      -T*S:                             -0.065664484649123         -1.7868           -41.21          -172.40
  (c) -T*S:                             -0.064975926154823         -1.7681           -40.77          -170.59
      Gibbs free energy:                -4.835750354270867       -131.5875         -3034.48        -12696.26
 
 
 
  (c) The properties marked with this symbol have been corrected using 'low vibrational frequency free rotor
      interpolation corrections'. For those terms all positive frequencies are used (also ones below 20 1/cm),
      but the contribution to the partition function of small vibrational frequencies is modified as described
      in the following paper:
      S. Grimme, 'Supramolecular Binding Thermodynamics by Dispersion-Corrected Density Functional Theory'
      (Chem. Eur. J. 2012, 18, 9955-9964)
      Configuration: Dampener Frequency          :   100.000 1/cm
                     Dampener Alpha              :     4.000
                     Averaging Moment of Inertia : 1.000E-44 kg m2

--------------
Atomic charges
--------------
  Index   Atom    Charge
      1      H   -0.1997
      2      C    0.1555
      3      C    0.3012
      4      C   -0.3290
      5      O   -0.6150
      6      H   -0.1710
      7      H   -0.2450
      8      H   -0.2256
      9      C    0.6911
     10      H   -0.2336
     11      C    0.7552
     12      C   -0.0480
     13      C    0.7519
     14      C    0.7467
     15      H   -0.2477
     16      H   -0.2510
     17      H   -0.2346
     18      H   -0.2406
     19      H   -0.2494
     20      H   -0.2501
     21      H   -0.2455
     22      H   -0.2381
     23      H   -0.2548
     24      H    0.1501
     25     Sn    1.3572
     26     Cl   -0.3187
     27     Cl   -0.3115


Dipole moment vector    (Debye):    -3.30360200   -3.62159359    1.52631619
              magnitude (Debye):     5.13413745


Final PES point is a local minimum. Geometry optimization successful!


AMS application finished. Exiting.
NORMAL TERMINATION
     Total cpu time:  167190.44
  Total system time:     547.47
 Total elapsed time:  337381.94
 WARNING: total elapsed time is much higher than the (CPU+system) time. 
 Make sure the machine is not oversubscribed and has enough memory, SCM_TMPDIR p
 oints to a fast file system, and the network is fast enough.
