

 Parallel Execution: Process Information
 ==============================================================================
 Rank   Node Name                              NodeID   MyNodeRank  NodeMaster
    0   DESKTOP-1M8FOJT                           0          0          0
    1   DESKTOP-1M8FOJT                           0          1         -1
    2   DESKTOP-1M8FOJT                           0          2         -1
    3   DESKTOP-1M8FOJT                           0          3         -1
 ==============================================================================


May use up to 4096MB of RAM as shared memory on node 0

 *******************************************************************************
 *                                                                             *
 *  --------------------------------                                           *
 *   Amsterdam Modeling Suite (AMS)              2021.106                      *
 *  --------------------------------                                           *
 *                                               r99350 2021-12-03             *
 *                                                                             *
 *                                                                             *
 *                              =================                              *
 *                              |               |                              *
 *                              |     A M S     |                              *
 *                              |               |                              *
 *                              =================                              *
 *                                                                             *
 *                                                                             *
 *   Online information and documentation:  https://www.scm.com/support/       *
 *   E-mail:  support@scm.com   info@scm.com                                   *
 *                                                                             *
 *   Scientific publications using AMS results must be properly referenced     *
 *   See the User Manuals (or the web site) for recommended citations          *
 *   The terms and conditions of the End User License Agreement apply to       *
 *   the use of AMS, https://www.scm.com/license-terms/                        *
 *                                                                             *
 *********************  x86_64_windows_amdZen / intelmpi  **********************
 
 Licensed to: Mr. Yuman Hordijk / SCM / Amsterdam / Netherlands 2021-10-04 09:39:26
 SCM User ID: u24430
  
 AMS 2021.106  RunTime: Jan23-2022 19:03:31  ShM Nodes: 1  Procs: 4

 AMS jobname: ams
 AMS jobid  : 600878681

 Start   directory: D:/Users/Yuman/Desktop/MasterProject/manual_calculations/chiral_cat_binaph/tmp..13544.0.noindex/
 Results directory: D:/Users/Yuman/Desktop/MasterProject/manual_calculations/chiral_cat_binaph/binaph.results/
 Scratch directory: Z:/SCMTMP/amstmp_ams_kid0.600878681/


 Communication costs MPI_COMM_WORLD:      1.050 usec per message,   0.0045 usec per 8-byte item
 Communication costs for intra-node:      1.588 usec per message,   0.0042 usec per 8-byte item

 RNG seed: 52180231 -1303596731 55558126 -126176904 -1098683907 976662161 940323097 1723872710



                      ************************************************************************
                      *  ADF 2021.106  RunTime: Jan23-2022 19:03:31  ShM Nodes: 1  Procs: 4  *
                      ************************************************************************
  
       ***************************
       *  GEOMETRY OPTIMIZATION  *
       ***************************

Optimization Method                    Quasi Newton
Optimization Coordinates               Delocalized Coordinates
Optimize lattice                       F
 
 ------------------------------------------------------
 Convergence criteria (Hartree,Angstrom)
 ------------------------------------------------------
 Maximum gradient               0.001000000000
 Maximum rms gradient           0.000666666667
 Maximum step allowed           0.010000000000
 Maximum rms step allowed       0.006666666667
 Maximum energy change allowe   0.000440000000
 Maximum stress energy allowe   0.000500000000
 
Initial model Hessian                  Automatic Hessian
 
------------------------------------
Quasi-Newton Optimizer Parameters
------------------------------------
Hessian Update Method                  BFGS
Maximum number of steps                  264
First GDIIS cycle                          0
Maximum GDIIS vectors                      0
Trust radius (bohr)                        0.200000
Trust radius varies                        T
Constraints converged at all steps         T
Use projector                              T
 
 Rigid motions settings for: old optimizer
 Atomic rotations (x,y,z):     T T T
 Atomic translations (x,y,z):  T T T
 Tolerance:                   1.000000000000000E-006
 
--------
Geometry
--------
Formula: C23H18O3
Atoms
  Index Symbol   x (angstrom)   y (angstrom)   z (angstrom)
      1      C    -2.87160167     1.12326615     1.37894235
      2      C    -3.86024033     1.10352824     2.34622505
      3      C    -4.25212723    -0.09898620     2.96921773
      4      C    -3.66619936    -1.28091557     2.60472456
      5      C    -1.11638914    -2.54509586     0.20937802
      6      C    -0.72565890    -1.34559063    -0.41406718
      7      C    -1.28659349    -0.15318607    -0.04094187
      8      C    -2.26806256    -0.10009359     0.97820377
      9      C    -2.67154610    -1.31535715     1.59855994
     10      C    -2.07025080    -2.52957981     1.19228115
     11      O    -4.49784456     2.23901740     2.73911662
     12      H    -5.01635100    -0.05764128     3.73602333
     13      H    -3.96157703    -2.20800782     3.08457827
     14      H    -0.66003307    -3.47949009    -0.09772314
     15      H     0.02413570    -1.37339964    -1.19700347
     16      H    -0.58350861     1.37802184     2.47501376
     17      H    -2.38168529    -3.45157813     1.67253121
     18      C    -2.44356069     2.42767889     0.80259592
     19      C    -3.28175793     3.12909471    -0.04924379
     20      C    -2.90082317     4.39171130    -0.55902595
     21      C    -1.69114056     4.93433201    -0.23136114
     22      C     1.29710595     4.13031514     1.83364945
     23      C     0.91352444     2.88957025     2.37391564
     24      C    -0.29477686     2.33198628     2.04832841
     25      C    -1.18302715     2.98578162     1.15958015
     26      C    -0.80027163     4.24924414     0.62972364
     27      C     0.45487918     4.79643849     0.98275942
     28      O    -4.49136313     2.66434881    -0.43314957
     29      H    -3.59124062     4.90427004    -1.21806642
     30      H    -1.39831436     5.90033924    -0.62862006
     31      H     2.25835144     4.55528588     2.09997343
     32      H     1.58308466     2.37585833     3.05499679
     33      H    -0.98740726     0.76738862    -0.52950714
     34      H     0.73888129     5.75803957     0.56784263
     35      H    -4.16818259     2.99726792     2.23192061
     36      H    -4.59192114     1.69814372    -0.28984653
     37      H    -7.70484643    -0.63423684     1.82034449
     38      C    -7.15865122     1.35178775     1.35373934
     39      C    -7.03779318     0.02595798     1.27640504
     40      C    -5.99836217    -0.61638387     0.46119047
     41      O    -5.18726929    -0.02400342    -0.21483846
     42      H    -6.49102069     2.01491593     0.81936098
     43      H    -6.00290118    -1.72373039     0.50393571
     44      H    -7.91845175     1.82642166     1.95868735
 
Total System Charge             0.00000
Bonding info available!
 
 
----------------
ADF Engine Input
----------------
 
 Basis
 Type TZ2P
 Core None
 End
 XC
 GGA OLYP
 End
 

 Title: *** (NO TITLE) ***

 Using automatic Hessian for delocalized coordinates.
 *** GOStep1 ***

 Energy gradients wrt nuclear displacements
 ==========================================

     Atom      Cartesian (a.u./angstrom)
                 X         Y         Z
 ----------------------------------------
     1 C    -0.007029 -0.005666  0.005084
     2 C    -0.007096 -0.007377 -0.001319
     3 C     0.001034 -0.003142 -0.009657
     4 C    -0.004483  0.000246  0.000040
     5 C    -0.005621  0.007169  0.004047
     6 C    -0.003913  0.004510  0.003201
     7 C     0.000781 -0.006215  0.002198
     8 C    -0.001126 -0.003317  0.004314
     9 C    -0.000196  0.012710 -0.005157
    10 C     0.003118  0.001303 -0.004132
    11 O     0.016367 -0.003603 -0.023952
    12 H     0.001386  0.000437 -0.003217
    13 H     0.001077  0.002828 -0.002438
    14 H    -0.001434  0.004493  0.000490
    15 H    -0.002898 -0.000726  0.003358
    16 H    -0.001599 -0.000937 -0.000773
    17 H     0.000547  0.003813 -0.001639
    18 C     0.001801  0.010601 -0.009663
    19 C    -0.001290  0.003238  0.003282
    20 C     0.004594 -0.005078  0.003753
    21 C    -0.000843  0.000103 -0.001381
    22 C    -0.008984 -0.001269 -0.003896
    23 C    -0.006114 -0.001042 -0.003212
    24 C     0.004154  0.006046 -0.003519
    25 C    -0.000708  0.002187 -0.005142
    26 C    -0.006489 -0.010496  0.003557
    27 C     0.001845 -0.003597  0.003452
    28 O     0.015108 -0.008199  0.018007
    29 H     0.002494 -0.001775  0.003352
    30 H    -0.000251 -0.003273  0.002044
    31 H    -0.003874 -0.002533 -0.000512
    32 H    -0.002090  0.002953 -0.002966
    33 H    -0.000668  0.001274  0.000960
    34 H    -0.001336 -0.003474  0.001330
    35 H    -0.007022  0.005481  0.000427
    36 H    -0.002075 -0.001590 -0.002024
    37 H     0.003489  0.003609 -0.003480
    38 C     0.007098 -0.009912  0.001931
    39 C     0.005891  0.000713  0.000433
    40 C     0.023386  0.012583 -0.014500
    41 O    -0.023652 -0.007430  0.036294
    42 H     0.002707  0.000088  0.001426
    43 H    -0.002899  0.004572  0.004827
    44 H     0.006814 -0.000305 -0.005228
 ----------------------------------------
 Mulliken charges used for AMS results%charges...
 
----------------------------------------------------------------------
Geometry Convergence after Step   1       (Hartree/Angstrom,Angstrom)
----------------------------------------------------------------------
current energy                              -10.31561579 Hartree
energy change                     -10.31561579     0.00044000    F
constrained gradient max            0.03614237     0.00100000    F
constrained gradient rms            0.00700059     0.00066667    F
gradient max                        0.03614237
gradient rms                        0.00700059
cart. step max                      0.21246760     0.01000000    F
cart. step rms                      0.04224782     0.00666667    F
 
 
--------
Geometry
--------
Formula: C23H18O3
Atoms
  Index Symbol   x (angstrom)   y (angstrom)   z (angstrom)
      1      C    -2.85392545     1.12810209     1.40112324
      2      C    -3.84458805     1.09840059     2.38047151
      3      C    -4.24775459    -0.11648460     2.97628104
      4      C    -3.66369427    -1.29725466     2.59856893
      5      C    -1.12006745    -2.57174295     0.19612215
      6      C    -0.72526027    -1.36788052    -0.42275954
      7      C    -1.27836045    -0.16837788    -0.04091365
      8      C    -2.25809026    -0.10497439     0.98481527
      9      C    -2.66654316    -1.33052664     1.59533017
     10      C    -2.07422652    -2.55034044     1.18277683
     11      O    -4.48241685     2.21660132     2.83033719
     12      H    -5.00845046    -0.08728991     3.74889826
     13      H    -3.96479011    -2.22804151     3.07091501
     14      H    -0.67139562    -3.51031359    -0.11572043
     15      H     0.02250885    -1.39503717    -1.20992872
     16      H    -0.53715249     1.42637963     2.52388837
     17      H    -2.39328542    -3.47310935     1.66014924
     18      C    -2.41873351     2.43483254     0.81991665
     19      C    -3.25426452     3.13410608    -0.05454691
     20      C    -2.86453640     4.39068999    -0.58041679
     21      C    -1.65302631     4.93528577    -0.25569749
     22      C     1.34306443     4.17208064     1.82526043
     23      C     0.95775256     2.93975215     2.39045492
     24      C    -0.25472739     2.37214529     2.07623738
     25      C    -1.15120740     3.00404370     1.17320904
     26      C    -0.76300212     4.26378806     0.61978138
     27      C     0.49473002     4.82013793     0.96103164
     28      O    -4.47101448     2.68739251    -0.45956248
     29      H    -3.54980253     4.89541614    -1.25356367
     30      H    -1.35747125     5.89463481    -0.67057398
     31      H     2.30581105     4.60473801     2.08059623
     32      H     1.62827641     2.43741358     3.08170086
     33      H    -0.97055548     0.74933109    -0.52906122
     34      H     0.77714857     5.77474241     0.52539117
     35      H    -4.14187276     2.98765659     2.35152289
     36      H    -4.58718717     1.72384622    -0.31090014
     37      H    -7.75172052    -0.69497517     1.77668031
     38      C    -7.32344344     1.32507147     1.35688510
     39      C    -7.10724008     0.00886557     1.25606334
     40      C    -6.02215547    -0.59375895     0.45392423
     41      O    -5.19749759     0.00625972    -0.22519987
     42      H    -6.70118795     2.04732793     0.84570578
     43      H    -6.01051419    -1.70307974     0.48692371
     44      H    -8.13091935     1.72688117     1.95823312
 
Total System Charge             0.00000
Bonding info available!
 
 *** GOStep2 ***

 Energy gradients wrt nuclear displacements
 ==========================================

     Atom      Cartesian (a.u./angstrom)
                 X         Y         Z
 ----------------------------------------
     1 C    -0.002545 -0.002919 -0.000140
     2 C    -0.010248 -0.000757  0.001026
     3 C    -0.003716  0.000275 -0.007736
     4 C    -0.001765  0.000361 -0.001762
     5 C    -0.002959  0.002670  0.002440
     6 C    -0.000650  0.001697  0.000107
     7 C     0.001279 -0.002455  0.000193
     8 C    -0.000312 -0.001692  0.003362
     9 C    -0.000889  0.007511 -0.003105
    10 C     0.001398 -0.000925 -0.001934
    11 O     0.007256 -0.003088 -0.011847
    12 H     0.000796 -0.000423 -0.001588
    13 H     0.000883  0.001598 -0.001494
    14 H    -0.000617  0.002152  0.000074
    15 H    -0.001384 -0.001035  0.001829
    16 H    -0.000585  0.000385 -0.000724
    17 H     0.000276  0.001771 -0.001000
    18 C     0.006238  0.002234 -0.004555
    19 C    -0.002037  0.005234 -0.000016
    20 C     0.000852 -0.003058  0.000866
    21 C     0.000000  0.000608 -0.001039
    22 C    -0.003989  0.000158 -0.002272
    23 C    -0.001838 -0.001213 -0.000600
    24 C     0.003080  0.001670 -0.000946
    25 C     0.000608  0.000699 -0.003567
    26 C    -0.004045 -0.005912  0.002167
    27 C     0.001795 -0.000310  0.001521
    28 O     0.004469 -0.005466  0.009418
    29 H     0.001185 -0.000425  0.001694
    30 H    -0.000080 -0.001784  0.001261
    31 H    -0.001726 -0.001305 -0.000096
    32 H    -0.000633  0.001905 -0.001619
    33 H    -0.000728  0.000602  0.001019
    34 H    -0.000506 -0.001689  0.000755
    35 H    -0.004934  0.001490  0.000788
    36 H    -0.000025 -0.002062 -0.003365
    37 H     0.000893  0.002868 -0.002104
    38 C     0.003984 -0.002450  0.002610
    39 C     0.000319 -0.002091  0.002918
    40 C     0.003838 -0.002220  0.006758
    41 O     0.008277  0.006132  0.007516
    42 H    -0.001815 -0.001361  0.002533
    43 H    -0.003262  0.001223  0.003218
    44 H     0.003863  0.001400 -0.002564
 ----------------------------------------
 Mulliken charges used for AMS results%charges...

 dE(predicted):    -0.77743E-02, dE(actual):    -0.59204E-02, Trust radius:    0.400000, all in a.u.
 
----------------------------------------------------------------------
Geometry Convergence after Step   2       (Hartree/Angstrom,Angstrom)
----------------------------------------------------------------------
current energy                              -10.32153620 Hartree
energy change                      -0.00592041     0.00044000    F
constrained gradient max            0.01186952     0.00100000    F
constrained gradient rms            0.00316251     0.00066667    F
gradient max                        0.01186952
gradient rms                        0.00316251
cart. step max                      0.21226919     0.01000000    F
cart. step rms                      0.04824825     0.00666667    F
 
 
--------
Geometry
--------
Formula: C23H18O3
Atoms
  Index Symbol   x (angstrom)   y (angstrom)   z (angstrom)
      1      C    -2.83978293     1.12987641     1.44122430
      2      C    -3.79410254     1.08480884     2.45609223
      3      C    -4.22423586    -0.14422202     3.00560962
      4      C    -3.63987276    -1.32134679     2.61560655
      5      C    -1.11022200    -2.57176569     0.18168313
      6      C    -0.74850474    -1.36291516    -0.45084388
      7      C    -1.30558833    -0.16614153    -0.05835878
      8      C    -2.25884277    -0.10580144     0.99393371
      9      C    -2.64449215    -1.34193082     1.60973801
     10      C    -2.04574183    -2.55665127     1.18878642
     11      O    -4.37370010     2.19991094     2.99392259
     12      H    -4.97342111    -0.12392786     3.79102073
     13      H    -3.93916998    -2.25705778     3.08233909
     14      H    -0.65693873    -3.50757621    -0.13566966
     15      H    -0.02012727    -1.38023296    -1.25787099
     16      H    -0.55295971     1.47375221     2.59133015
     17      H    -2.34586770    -3.48223644     1.67550375
     18      C    -2.42942381     2.44767042     0.85866920
     19      C    -3.25901377     3.13964278    -0.03582157
     20      C    -2.85747008     4.38655648    -0.58165838
     21      C    -1.63934892     4.92720958    -0.27338418
     22      C     1.36676168     4.17212306     1.80439563
     23      C     0.96213468     2.96281373     2.40830238
     24      C    -0.26383379     2.40566316     2.11863205
     25      C    -1.15851927     3.02480202     1.20339997
     26      C    -0.75240637     4.26749817     0.61480438
     27      C     0.51884891     4.81085156     0.92925788
     28      O    -4.47821116     2.71046229    -0.46220122
     29      H    -3.53529623     4.87783390    -1.27377141
     30      H    -1.33408632     5.87076671    -0.71939163
     31      H     2.34143252     4.59453437     2.03507642
     32      H     1.62933429     2.46367758     3.10694319
     33      H    -1.01423440     0.75103579    -0.55773472
     34      H     0.81433727     5.74714630     0.46104424
     35      H    -3.98507823     2.97796229     2.56379208
     36      H    -4.60756952     1.74875135    -0.31604832
     37      H    -7.77426812    -0.70198470     1.75030923
     38      C    -7.45154329     1.32017105     1.24800500
     39      C    -7.15395621     0.01522342     1.21467755
     40      C    -6.02985902    -0.57254136     0.45425950
     41      O    -5.22278323     0.03154301    -0.23333416
     42      H    -6.85976934     2.05676044     0.71637569
     43      H    -5.99450844    -1.68178306     0.48788446
     44      H    -8.30088874     1.69180277     1.81382028
 
Total System Charge             0.00000
Bonding info available!
 
 *** GOStep3 ***

 Energy gradients wrt nuclear displacements
 ==========================================

     Atom      Cartesian (a.u./angstrom)
                 X         Y         Z
 ----------------------------------------
     1 C     0.001008  0.000373  0.000440
     2 C    -0.005355  0.000258  0.001373
     3 C    -0.007618  0.000163 -0.012623
     4 C    -0.000247 -0.000275 -0.000940
     5 C    -0.001091  0.000220  0.001572
     6 C    -0.000377  0.001299 -0.000451
     7 C     0.001108 -0.001071 -0.001340
     8 C    -0.000542 -0.001126  0.003018
     9 C    -0.000273  0.003042 -0.000481
    10 C     0.000266 -0.001229 -0.000581
    11 O     0.005110 -0.000865 -0.004273
    12 H     0.000823 -0.000459 -0.000612
    13 H     0.000813  0.000469 -0.000044
    14 H    -0.000194  0.000555 -0.000138
    15 H    -0.000417 -0.000655  0.000683
    16 H    -0.000251  0.000272 -0.000480
    17 H     0.000059  0.000480 -0.000352
    18 C     0.003935 -0.000550 -0.000459
    19 C    -0.000705  0.004180 -0.000089
    20 C    -0.001540 -0.001592  0.000024
    21 C     0.000286  0.000510 -0.000181
    22 C    -0.001099  0.000760 -0.001362
    23 C    -0.000970 -0.001026  0.000130
    24 C     0.001002  0.000150  0.000186
    25 C    -0.000619  0.000062 -0.001223
    26 C    -0.002168 -0.002548  0.000130
    27 C     0.001156  0.000424  0.000218
    28 O    -0.002099 -0.001830  0.003798
    29 H     0.000644  0.000115  0.000070
    30 H     0.000199 -0.000700  0.000275
    31 H    -0.000354 -0.000437 -0.000109
    32 H     0.000068  0.000724 -0.000783
    33 H    -0.000405 -0.000056  0.000550
    34 H    -0.000056 -0.000608 -0.000023
    35 H    -0.001775  0.000335  0.001304
    36 H     0.000753 -0.002083 -0.004468
    37 H    -0.000130  0.000824 -0.001670
    38 C     0.001196 -0.000705  0.001145
    39 C     0.001481 -0.000560 -0.000570
    40 C     0.014420  0.003995  0.008782
    41 O    -0.003665 -0.002552  0.010523
    42 H    -0.001025 -0.000439  0.000873
    43 H    -0.002750  0.000909 -0.001179
    44 H     0.001400  0.001242 -0.000664
 ----------------------------------------
 Mulliken charges used for AMS results%charges...

 dE(predicted):    -0.37542E-02, dE(actual):    -0.28002E-02, Trust radius:    0.400000, all in a.u.
 
----------------------------------------------------------------------
Geometry Convergence after Step   3       (Hartree/Angstrom,Angstrom)
----------------------------------------------------------------------
current energy                              -10.32433644 Hartree
energy change                      -0.00280024     0.00044000    F
constrained gradient max            0.01445969     0.00100000    F
constrained gradient rms            0.00261619     0.00066667    F
gradient max                        0.01445969
gradient rms                        0.00261619
cart. step max                      0.19966872     0.01000000    F
cart. step rms                      0.03638969     0.00666667    F
 
 
--------
Geometry
--------
Formula: C23H18O3
Atoms
  Index Symbol   x (angstrom)   y (angstrom)   z (angstrom)
      1      C    -2.85216781     1.13669477     1.44328451
      2      C    -3.78405760     1.07938840     2.47974659
      3      C    -4.21156777    -0.15743518     3.01721882
      4      C    -3.61948808    -1.33017922     2.62418066
      5      C    -1.06432448    -2.55623775     0.19744919
      6      C    -0.73406793    -1.34531109    -0.45042575
      7      C    -1.31558112    -0.15400232    -0.06855098
      8      C    -2.26629879    -0.09861296     0.98701862
      9      C    -2.62361220    -1.34133925     1.61733405
     10      C    -1.99686354    -2.54712876     1.21027080
     11      O    -4.38742623     2.18250576     3.02629936
     12      H    -4.95825531    -0.14479413     3.80703498
     13      H    -3.91764497    -2.26928639     3.08761295
     14      H    -0.58836767    -3.48675232    -0.10543100
     15      H    -0.01076469    -1.35225792    -1.26377159
     16      H    -0.57434344     1.47886265     2.61148575
     17      H    -2.27022948    -3.47237074     1.71557378
     18      C    -2.44303315     2.46161786     0.86841531
     19      C    -3.25453592     3.15805698    -0.04405727
     20      C    -2.82981244     4.39885863    -0.59255596
     21      C    -1.60525192     4.92615488    -0.28577678
     22      C     1.39583617     4.13486345     1.79475929
     23      C     0.96731424     2.93841331     2.40992877
     24      C    -0.27293111     2.40256574     2.12947752
     25      C    -1.16161457     3.02941674     1.21180004
     26      C    -0.72915503     4.26226994     0.61099342
     27      C     0.55406226     4.78301585     0.91710161
     28      O    -4.48442846     2.76606612    -0.48205611
     29      H    -3.50094610     4.89487251    -1.28930242
     30      H    -1.28810834     5.86241624    -0.74162879
     31      H     2.38121460     4.54039543     2.01462998
     32      H     1.62462498     2.42866366     3.11213619
     33      H    -1.04145692     0.76113071    -0.58195694
     34      H     0.86572660     5.70982447     0.43811206
     35      H    -4.00004169     2.96136796     2.59373589
     36      H    -4.64090234     1.80802241    -0.34099581
     37      H    -7.72869113    -0.73141548     1.80966055
     38      C    -7.58162482     1.29167834     1.23445084
     39      C    -7.19079416     0.01022256     1.21687645
     40      C    -6.06133668    -0.53181521     0.42497130
     41      O    -5.28362745     0.09696648    -0.28287566
     42      H    -7.05943806     2.06018857     0.67153185
     43      H    -5.96080231    -1.63738292     0.47821072
     44      H    -8.43797458     1.60455672     1.82843373
 
Total System Charge             0.00000
Bonding info available!
 
 *** GOStep4 ***

 Energy gradients wrt nuclear displacements
 ==========================================

     Atom      Cartesian (a.u./angstrom)
                 X         Y         Z
 ----------------------------------------
     1 C    -0.000381  0.001312 -0.002196
     2 C     0.004670  0.002219  0.005130
     3 C    -0.009323  0.000635 -0.013595
     4 C     0.000260 -0.000204 -0.000917
     5 C     0.000055 -0.002070 -0.000514
     6 C     0.000886  0.000504 -0.000178
     7 C     0.001180  0.000879 -0.000717
     8 C    -0.002194 -0.000200 -0.001044
     9 C     0.000369 -0.001431  0.001745
    10 C    -0.000136 -0.000607  0.001029
    11 O    -0.003941 -0.000441  0.001148
    12 H     0.000042 -0.000470  0.000861
    13 H    -0.000407 -0.000568  0.000430
    14 H     0.000363 -0.000867 -0.000119
    15 H     0.000300 -0.000197 -0.000704
    16 H    -0.000153 -0.000227 -0.000119
    17 H     0.000084 -0.000573  0.000696
    18 C     0.002056 -0.001793  0.004788
    19 C    -0.000083 -0.000708 -0.002709
    20 C    -0.002150 -0.000466 -0.000552
    21 C     0.000710  0.000000  0.000188
    22 C     0.001701  0.000989 -0.000068
    23 C     0.000493 -0.000812  0.000309
    24 C    -0.000110 -0.001454  0.000628
    25 C    -0.001650  0.000043  0.000143
    26 C     0.000506  0.001872 -0.001342
    27 C     0.000269  0.000939 -0.000761
    28 O    -0.005304  0.002423  0.000547
    29 H    -0.000446  0.000582 -0.000591
    30 H     0.000214  0.000486 -0.000548
    31 H     0.000880  0.000305 -0.000196
    32 H     0.000527 -0.000243  0.000400
    33 H    -0.000083 -0.000136 -0.000125
    34 H     0.000262  0.000514 -0.000639
    35 H     0.000696 -0.000817 -0.000894
    36 H     0.001673 -0.002231 -0.004510
    37 H     0.000049 -0.000568  0.001886
    38 C    -0.000394  0.000081  0.000104
    39 C    -0.000582  0.001749 -0.000051
    40 C     0.001814 -0.000081  0.009196
    41 O     0.007283  0.001403  0.001810
    42 H     0.000881  0.000828  0.001366
    43 H     0.000646 -0.000808 -0.000018
    44 H    -0.001532  0.000207  0.000704
 ----------------------------------------
 Mulliken charges used for AMS results%charges...

 dE(predicted):    -0.11723E-02, dE(actual):    -0.72385E-03, Trust radius:    0.400000, all in a.u.
 
----------------------------------------------------------------------
Geometry Convergence after Step   4       (Hartree/Angstrom,Angstrom)
----------------------------------------------------------------------
current energy                              -10.32506029 Hartree
energy change                      -0.00072385     0.00044000    F
constrained gradient max            0.01370277     0.00100000    F
constrained gradient rms            0.00224225     0.00066667    F
gradient max                        0.01370277
gradient rms                        0.00224225
cart. step max                      0.21169904     0.01000000    F
cart. step rms                      0.04012644     0.00666667    F
 
 
--------
Geometry
--------
Formula: C23H18O3
Atoms
  Index Symbol   x (angstrom)   y (angstrom)   z (angstrom)
      1      C    -2.85093768     1.14732250     1.45304197
      2      C    -3.76427426     1.09112331     2.50418050
      3      C    -4.16891874    -0.14430796     3.06458901
      4      C    -3.57895777    -1.31614147     2.66724800
      5      C    -1.07933389    -2.54122843     0.18054702
      6      C    -0.77262020    -1.33292392    -0.48147915
      7      C    -1.34974759    -0.14288552    -0.08994161
      8      C    -2.27113044    -0.08731369     0.98936913
      9      C    -2.61223284    -1.32919139     1.63147887
     10      C    -1.99057941    -2.53250461     1.21282607
     11      O    -4.33407577     2.19972044     3.07970001
     12      H    -4.90649007    -0.12953121     3.86343166
     13      H    -3.86713630    -2.25411430     3.13942720
     14      H    -0.60537234    -3.47104662    -0.12709917
     15      H    -0.06845704    -1.33749337    -1.31159024
     16      H    -0.58342318     1.48083083     2.62613618
     17      H    -2.24898998    -3.45716972     1.72716807
     18      C    -2.44035804     2.46984932     0.87298269
     19      C    -3.24462603     3.17119337    -0.03858824
     20      C    -2.80351412     4.40400638    -0.59421326
     21      C    -1.57542209     4.92192613    -0.29042396
     22      C     1.41186409     4.11352264     1.80315740
     23      C     0.97067491     2.92449184     2.42123285
     24      C    -0.27289447     2.39833990     2.13790365
     25      C    -1.15217719     3.02709588     1.21366173
     26      C    -0.70719408     4.25481752     0.61132734
     27      C     0.57828404     4.76502375     0.92023293
     28      O    -4.47988702     2.79645054    -0.47515134
     29      H    -3.47146143     4.90202390    -1.29243449
     30      H    -1.25209795     5.85458551    -0.74967114
     31      H     2.39918507     4.51304027     2.02478860
     32      H     1.61914067     2.41058023     3.12873784
     33      H    -1.09168429     0.77055284    -0.61506236
     34      H     0.89794560     5.68890034     0.44064941
     35      H    -3.94042585     2.97513362     2.64472715
     36      H    -4.65381557     1.84164876    -0.33450150
     37      H    -7.68100374    -0.75610293     1.85749219
     38      C    -7.69461196     1.23243495     1.15303189
     39      C    -7.20439514    -0.01241847     1.21625904
     40      C    -6.05380329    -0.51712867     0.43156649
     41      O    -5.31751546     0.13446255    -0.30032479
     42      H    -7.27113710     1.98366795     0.49063483
     43      H    -5.89978454    -1.61545603     0.50425555
     44      H    -8.55939696     1.51694858     1.74904653
 
Total System Charge             0.00000
Bonding info available!
 
 *** GOStep5 ***

 Energy gradients wrt nuclear displacements
 ==========================================

     Atom      Cartesian (a.u./angstrom)
                 X         Y         Z
 ----------------------------------------
     1 C    -0.000109  0.000929 -0.000549
     2 C     0.000721 -0.000097 -0.001829
     3 C    -0.006217 -0.000957 -0.010482
     4 C     0.002437  0.000210  0.001861
     5 C     0.001047 -0.001092 -0.000377
     6 C    -0.000470 -0.000158 -0.000011
     7 C    -0.000286  0.000767  0.000031
     8 C     0.000883  0.000459 -0.000744
     9 C    -0.001076 -0.002758  0.000863
    10 C    -0.000451  0.000620  0.000244
    11 O    -0.002701  0.001175  0.004906
    12 H    -0.001149 -0.000434  0.000217
    13 H    -0.001100 -0.000607  0.000202
    14 H     0.000318 -0.000773  0.000127
    15 H     0.000405  0.000269 -0.000739
    16 H    -0.000076 -0.000201  0.000263
    17 H    -0.000146 -0.000496  0.000726
    18 C    -0.000328 -0.001070  0.002595
    19 C     0.000307 -0.001768 -0.000864
    20 C     0.000128 -0.000052 -0.000357
    21 C     0.000451 -0.000751  0.000013
    22 C     0.001310  0.000112  0.000207
    23 C     0.000152  0.000153 -0.000225
    24 C    -0.000232 -0.000489  0.000304
    25 C    -0.000635 -0.000697 -0.000516
    26 C     0.001290  0.003146 -0.001101
    27 C    -0.000438 -0.000186 -0.000593
    28 O    -0.004484  0.003041  0.000481
    29 H    -0.000617  0.000215 -0.000423
    30 H    -0.000110  0.000794 -0.000596
    31 H     0.000700  0.000398 -0.000322
    32 H     0.000345 -0.000581  0.000425
    33 H     0.000209 -0.000125 -0.000546
    34 H     0.000080  0.000660 -0.000595
    35 H     0.002129 -0.000056 -0.001181
    36 H     0.000970 -0.003101 -0.004734
    37 H    -0.001659 -0.001815 -0.000210
    38 C     0.002476  0.000905  0.003323
    39 C    -0.001552  0.002929 -0.000488
    40 C     0.003499  0.000794  0.013792
    41 O     0.006383  0.002236 -0.000989
    42 H    -0.001240  0.000347 -0.002545
    43 H     0.000274 -0.001102 -0.000909
    44 H    -0.001439 -0.000794  0.001344
 ----------------------------------------
 Mulliken charges used for AMS results%charges...

 dE(predicted):    -0.86536E-03, dE(actual):    -0.85346E-03, Trust radius:    0.800000, all in a.u.
 
----------------------------------------------------------------------
Geometry Convergence after Step   5       (Hartree/Angstrom,Angstrom)
----------------------------------------------------------------------
current energy                              -10.32591375 Hartree
energy change                      -0.00085346     0.00044000    F
constrained gradient max            0.01359029     0.00100000    F
constrained gradient rms            0.00216373     0.00066667    F
gradient max                        0.01359029
gradient rms                        0.00216373
cart. step max                      0.21471313     0.01000000    F
cart. step rms                      0.05033496     0.00666667    F
 
 
--------
Geometry
--------
Formula: C23H18O3
Atoms
  Index Symbol   x (angstrom)   y (angstrom)   z (angstrom)
      1      C    -2.84803594     1.16933612     1.48106715
      2      C    -3.74848543     1.11378264     2.54280059
      3      C    -4.13136041    -0.12096578     3.12331256
      4      C    -3.54471126    -1.29090575     2.71749621
      5      C    -1.10322413    -2.51574277     0.17393640
      6      C    -0.80878868    -1.30853201    -0.49268209
      7      C    -1.37813336    -0.11907387    -0.08886662
      8      C    -2.27522459    -0.06395287     1.00880826
      9      C    -2.60273936    -1.30456660     1.65889434
     10      C    -1.99142825    -2.50689300     1.22579684
     11      O    -4.31486237     2.22397373     3.12100977
     12      H    -4.85746254    -0.10529524     3.93266039
     13      H    -3.81158814    -2.22677222     3.20556466
     14      H    -0.63949082    -3.44655080    -0.14485495
     15      H    -0.12232161    -1.31145782    -1.33722841
     16      H    -0.56791385     1.47091617     2.62512947
     17      H    -2.24295495    -3.43247668     1.74163156
     18      C    -2.43428095     2.48778776     0.89339767
     19      C    -3.23802921     3.20170579    -0.00448645
     20      C    -2.78287307     4.42743809    -0.56600540
     21      C    -1.54492338     4.92688061    -0.27779366
     22      C     1.45336427     4.07265189     1.77912154
     23      C     1.00217395     2.89168537     2.40206309
     24      C    -0.25267797     2.38510762     2.13404013
     25      C    -1.13381887     3.02668297     1.22181577
     26      C    -0.67689902     4.24642633     0.61407252
     27      C     0.61899278     4.73603087     0.90651020
     28      O    -4.48054484     2.84619839    -0.43324410
     29      H    -3.45021058     4.93036513    -1.26086137
     30      H    -1.21211027     5.85165465    -0.74574256
     31      H     2.44920234     4.45740066     1.98682556
     32      H     1.65112570     2.36536635     3.09962659
     33      H    -1.13046074     0.79418064    -0.61943963
     34      H     0.94702137     5.65397092     0.42152769
     35      H    -3.93578453     2.99920853     2.67265005
     36      H    -4.67366764     1.89456795    -0.29882849
     37      H    -7.61871372    -0.79522970     1.89306011
     38      C    -7.85137051     1.11396851     1.02142961
     39      C    -7.22979043    -0.06077367     1.18602465
     40      C    -6.04420831    -0.50037065     0.41749990
     41      O    -5.36465431     0.19190423    -0.32951922
     42      H    -7.48585023     1.86045945     0.31980301
     43      H    -5.81152036    -1.58272356     0.51171349
     44      H    -8.72355521     1.36536712     1.62061370
 
Total System Charge             0.00000
Bonding info available!
 
 *** GOStep6 ***

 Energy gradients wrt nuclear displacements
 ==========================================

     Atom      Cartesian (a.u./angstrom)
                 X         Y         Z
 ----------------------------------------
     1 C     0.000416 -0.000003  0.001054
     2 C     0.000234 -0.001404 -0.003899
     3 C    -0.004595 -0.003012 -0.007175
     4 C     0.002291  0.000534  0.001224
     5 C     0.001040  0.000347 -0.000754
     6 C    -0.000655 -0.001309  0.000723
     7 C    -0.001864  0.000575  0.001358
     8 C     0.002502  0.000916 -0.001475
     9 C    -0.001052 -0.002865  0.000527
    10 C     0.000004  0.001839  0.000086
    11 O    -0.002972  0.002219  0.005475
    12 H    -0.001605 -0.000409 -0.000244
    13 H    -0.000481 -0.000147  0.000673
    14 H    -0.000045 -0.000435  0.000303
    15 H     0.000227  0.000540 -0.000568
    16 H     0.000291 -0.000277  0.000195
    17 H    -0.000442 -0.000314  0.000419
    18 C    -0.001910 -0.000304 -0.001787
    19 C    -0.000267 -0.001905  0.001331
    20 C     0.002122  0.000689  0.000285
    21 C    -0.000363 -0.000791  0.000347
    22 C     0.000360 -0.000739  0.000432
    23 C     0.000227  0.001207 -0.000672
    24 C    -0.000169  0.000466 -0.000271
    25 C     0.000113 -0.000791  0.000254
    26 C     0.002049  0.002804 -0.001084
    27 C    -0.001083 -0.001202 -0.000162
    28 O    -0.001329  0.003257  0.000514
    29 H    -0.000459 -0.000433 -0.000436
    30 H    -0.000282  0.000525 -0.000860
    31 H     0.000284  0.000371 -0.000529
    32 H     0.000125 -0.000671  0.000160
    33 H     0.000428 -0.000021 -0.000669
    34 H    -0.000008  0.000433 -0.000619
    35 H     0.002092  0.000444 -0.001442
    36 H    -0.000565 -0.004279 -0.004342
    37 H    -0.000016 -0.001362  0.000903
    38 C    -0.004149 -0.002325 -0.005137
    39 C    -0.000165  0.003281 -0.000587
    40 C     0.005648  0.001861  0.014124
    41 O     0.002353  0.002172 -0.000093
    42 H     0.001339  0.001716  0.000437
    43 H    -0.000516 -0.000917 -0.001360
    44 H     0.000846 -0.000282  0.003340
 ----------------------------------------
 Mulliken charges used for AMS results%charges...

 dE(predicted):    -0.10377E-02, dE(actual):    -0.63022E-03, Trust radius:    0.800000, all in a.u.
 
----------------------------------------------------------------------
Geometry Convergence after Step   6       (Hartree/Angstrom,Angstrom)
----------------------------------------------------------------------
current energy                              -10.32654396 Hartree
energy change                      -0.00063022     0.00044000    F
constrained gradient max            0.01392536     0.00100000    F
constrained gradient rms            0.00215571     0.00066667    F
gradient max                        0.01392536
gradient rms                        0.00215571
cart. step max                      0.21563855     0.01000000    F
cart. step rms                      0.05401623     0.00666667    F
 
 
--------
Geometry
--------
Formula: C23H18O3
Atoms
  Index Symbol   x (angstrom)   y (angstrom)   z (angstrom)
      1      C    -2.83697899     1.19373712     1.51106009
      2      C    -3.72327366     1.14402565     2.58541994
      3      C    -4.09607107    -0.08830918     3.18041776
      4      C    -3.52397642    -1.26016803     2.76119445
      5      C    -1.14530969    -2.50202576     0.16955705
      6      C    -0.85065649    -1.29730544    -0.49942631
      7      C    -1.40345743    -0.10384052    -0.08426688
      8      C    -2.28061350    -0.04232277     1.02838384
      9      C    -2.60255619    -1.27935453     1.68516133
     10      C    -2.01096155    -2.48644925     1.23948376
     11      O    -4.29218571     2.25581508     3.15675620
     12      H    -4.80321935    -0.06766777     4.00595999
     13      H    -3.77502244    -2.19305814     3.26238483
     14      H    -0.69828323    -3.43697918    -0.15968968
     15      H    -0.17958497    -1.30485706    -1.35575682
     16      H    -0.53609602     1.46553055     2.62291491
     17      H    -2.26040506    -3.41046351     1.75865907
     18      C    -2.41748093     2.50708239     0.91598872
     19      C    -3.22584489     3.23528885     0.03741184
     20      C    -2.76475126     4.45795734    -0.52694060
     21      C    -1.51562929     4.93813787    -0.25934525
     22      C     1.50236347     4.04132741     1.74741957
     23      C     1.04648377     2.86652207     2.37626087
     24      C    -0.21877936     2.37613211     2.12725350
     25      C    -1.10560076     3.02913480     1.22990805
     26      C    -0.64287927     4.24261299     0.61668736
     27      C     0.66292215     4.71551239     0.88853967
     28      O    -4.47886454     2.89907654    -0.37237781
     29      H    -3.43733073     4.97048745    -1.20922349
     30      H    -1.17702498     5.85815867    -0.73163403
     31      H     2.50552292     4.41401367     1.93974927
     32      H     1.69875608     2.33165231     3.06360970
     33      H    -1.15803158     0.80783629    -0.61824494
     34      H     0.99500077     5.62902724     0.39856407
     35      H    -3.93364964     3.03100004     2.69307275
     36      H    -4.69215576     1.95193777    -0.24013935
     37      H    -7.56067427    -0.83688265     1.90807435
     38      C    -7.97880942     0.98349648     0.91914327
     39      C    -7.24870663    -0.11441639     1.15340150
     40      C    -6.03969163    -0.48108140     0.38580486
     41      O    -5.41397665     0.25675564    -0.36166296
     42      H    -7.70148878     1.69200988     0.14227631
     43      H    -5.72195735    -1.53860205     0.50403413
     44      H    -8.90185906     1.16225056     1.46450562
 
Total System Charge             0.00000
Bonding info available!
 
 *** GOStep7 ***

 Energy gradients wrt nuclear displacements
 ==========================================

     Atom      Cartesian (a.u./angstrom)
                 X         Y         Z
 ----------------------------------------
     1 C     0.000574 -0.000477  0.001791
     2 C     0.002047 -0.001074 -0.002050
     3 C    -0.004590 -0.004349 -0.004667
     4 C     0.000924  0.000648 -0.001358
     5 C     0.000475  0.001458 -0.001205
     6 C    -0.000039 -0.002410  0.001121
     7 C    -0.002544  0.000367  0.002140
     8 C     0.001753  0.000834 -0.002322
     9 C     0.000285 -0.001657  0.000642
    10 C     0.000109  0.002002  0.000195
    11 O    -0.002890  0.002627  0.003629
    12 H    -0.001116 -0.000327 -0.000185
    13 H     0.000450  0.000417  0.000963
    14 H    -0.000380 -0.000096  0.000469
    15 H    -0.000038  0.000525 -0.000215
    16 H     0.000661  0.000027  0.000099
    17 H    -0.000323 -0.000119  0.000214
    18 C    -0.002944  0.000218 -0.005508
    19 C    -0.000128 -0.001932  0.002196
    20 C     0.002715  0.001504  0.000698
    21 C    -0.000849 -0.000509  0.000144
    22 C    -0.000288 -0.001319  0.000561
    23 C     0.000782  0.001732 -0.000951
    24 C    -0.000420  0.000932 -0.000749
    25 C     0.001095 -0.000401  0.001503
    26 C     0.002097  0.001355 -0.000589
    27 C    -0.001490 -0.001406 -0.000033
    28 O     0.001995  0.003115  0.000991
    29 H    -0.000391 -0.000776 -0.000317
    30 H    -0.000460  0.000098 -0.000878
    31 H    -0.000169  0.000342 -0.000611
    32 H    -0.000166 -0.000433 -0.000098
    33 H     0.000336 -0.000159 -0.000535
    34 H    -0.000067  0.000120 -0.000572
    35 H     0.001088  0.000306 -0.001052
    36 H    -0.002738 -0.005407 -0.003419
    37 H     0.000877 -0.000267  0.000962
    38 C     0.002884  0.003830  0.003270
    39 C    -0.000284  0.001454 -0.001717
    40 C     0.003158  0.000922  0.005811
    41 O     0.000252  0.001840  0.003630
    42 H    -0.000663 -0.000538 -0.001525
    43 H    -0.000035  0.000136  0.000683
    44 H    -0.001549 -0.003154 -0.001158
 ----------------------------------------
 Mulliken charges used for AMS results%charges...

 dE(predicted):    -0.10468E-02, dE(actual):    -0.52200E-03, Trust radius:    0.800000, all in a.u.
 
----------------------------------------------------------------------
Geometry Convergence after Step   7       (Hartree/Angstrom,Angstrom)
----------------------------------------------------------------------
current energy                              -10.32706596 Hartree
energy change                      -0.00052200     0.00044000    F
constrained gradient max            0.00560529     0.00100000    F
constrained gradient rms            0.00177693     0.00066667    F
gradient max                        0.00560529
gradient rms                        0.00177693
cart. step max                      0.21085567     0.01000000    F
cart. step rms                      0.05741198     0.00666667    F
 
 
--------
Geometry
--------
Formula: C23H18O3
Atoms
  Index Symbol   x (angstrom)   y (angstrom)   z (angstrom)
      1      C    -2.82882948     1.22400549     1.53974648
      2      C    -3.69903556     1.18662334     2.62938591
      3      C    -4.06175519    -0.04040331     3.24363377
      4      C    -3.51303275    -1.21793402     2.81005256
      5      C    -1.20674106    -2.49654317     0.17467825
      6      C    -0.90722526    -1.29693529    -0.50139820
      7      C    -1.43463607    -0.09487096    -0.07670630
      8      C    -2.29373048    -0.01935105     1.05033130
      9      C    -2.61698794    -1.25021020     1.71429738
     10      C    -2.05211920    -2.46764274     1.26023560
     11      O    -4.25340939     2.30207761     3.20219470
     12      H    -4.74043973    -0.01069629     4.09191962
     13      H    -3.76191581    -2.14829551     3.31650169
     14      H    -0.77761923    -3.43776138    -0.16023219
     15      H    -0.25009494    -1.31575513    -1.36783176
     16      H    -0.50312529     1.46456040     2.62080079
     17      H    -2.29823569    -3.38639009     1.78979041
     18      C    -2.39738412     2.53006140     0.93799493
     19      C    -3.21067360     3.27325352     0.07833452
     20      C    -2.74542687     4.49285362    -0.49035865
     21      C    -1.48439361     4.95246455    -0.24381754
     22      C     1.55398383     4.01364207     1.71178059
     23      C     1.09378091     2.84408540     2.34710719
     24      C    -0.18127949     2.36853485     2.11679621
     25      C    -1.07251231     3.03211154     1.23241463
     26      C    -0.60621613     4.24085651     0.61508630
     27      C     0.70902246     4.69947034     0.86723586
     28      O    -4.47864687     2.96098740    -0.30105082
     29      H    -3.42695592     5.02237779    -1.15024026
     30      H    -1.14192053     5.87254543    -0.71218753
     31      H     2.56368117     4.37493706     1.89059861
     32      H     1.74871313     2.30412340     3.02739293
     33      H    -1.18676723     0.81290673    -0.61547261
     34      H     1.04346104     5.61083032     0.37543843
     35      H    -3.91019538     3.07646634     2.72834318
     36      H    -4.72127571     2.02277556    -0.15731073
     37      H    -7.49774146    -0.92451481     1.86807925
     38      C    -8.10227977     0.80392390     0.80874104
     39      C    -7.26714982    -0.20730340     1.08114921
     40      C    -6.03218633    -0.46322444     0.31011085
     41      O    -5.47422860     0.34004742    -0.42298031
     42      H    -7.89475646     1.49436495    -0.00447078
     43      H    -5.61093674    -1.48171449     0.44281376
     44      H    -9.01357198     0.95139489     1.38142225
 
Total System Charge             0.00000
Bonding info available!
 
 *** GOStep8 ***

 Energy gradients wrt nuclear displacements
 ==========================================

     Atom      Cartesian (a.u./angstrom)
                 X         Y         Z
 ----------------------------------------
     1 C     0.000774  0.000146  0.001637
     2 C    -0.000078  0.001216 -0.000670
     3 C    -0.004919 -0.004461 -0.002085
     4 C     0.001649  0.000931 -0.003473
     5 C     0.000576  0.001728 -0.001143
     6 C     0.000287 -0.003180  0.000088
     7 C    -0.001639  0.000501  0.002146
     8 C     0.000553  0.000311 -0.001104
     9 C     0.001293  0.000305  0.000568
    10 C    -0.001059  0.000807  0.000296
    11 O    -0.000746  0.001963  0.000916
    12 H     0.000055 -0.000318  0.000142
    13 H     0.000436  0.000511  0.000208
    14 H    -0.000375  0.000040  0.000599
    15 H    -0.000137  0.000274  0.000259
    16 H     0.000802  0.000615  0.000188
    17 H     0.000326 -0.000027  0.000262
    18 C    -0.003132  0.000398 -0.006348
    19 C     0.001099 -0.001697  0.001293
    20 C     0.002102  0.002032 -0.000119
    21 C    -0.000845 -0.000049 -0.000950
    22 C     0.000039 -0.001545  0.000587
    23 C     0.001760  0.001513 -0.000775
    24 C    -0.001399  0.000473 -0.001040
    25 C     0.002715 -0.000146  0.001842
    26 C     0.001168 -0.000547  0.000713
    27 C    -0.001333 -0.000268 -0.000467
    28 O     0.005046  0.002822  0.001227
    29 H    -0.000604 -0.000487  0.000162
    30 H    -0.000617 -0.000127 -0.000335
    31 H    -0.000341  0.000322 -0.000543
    32 H    -0.000395  0.000014 -0.000186
    33 H     0.000043 -0.000395 -0.000165
    34 H    -0.000090 -0.000032 -0.000328
    35 H    -0.000324 -0.000495  0.000250
    36 H    -0.006772 -0.007182 -0.001394
    37 H     0.000039  0.000536  0.000147
    38 C    -0.000791  0.001546 -0.001307
    39 C     0.002484 -0.001695  0.001329
    40 C     0.001319  0.001381  0.000308
    41 O     0.000665  0.003172  0.003935
    42 H    -0.000144 -0.001286 -0.000663
    43 H    -0.000422  0.000788  0.003205
    44 H     0.000933 -0.000408  0.000789
 ----------------------------------------
 Mulliken charges used for AMS results%charges...

 dE(predicted):    -0.84741E-03, dE(actual):    -0.41805E-03, Trust radius:    0.800000, all in a.u.
 
----------------------------------------------------------------------
Geometry Convergence after Step   8       (Hartree/Angstrom,Angstrom)
----------------------------------------------------------------------
current energy                              -10.32748402 Hartree
energy change                      -0.00041805     0.00044000    T
constrained gradient max            0.00710885     0.00100000    F
constrained gradient rms            0.00172719     0.00066667    F
gradient max                        0.00710885
gradient rms                        0.00172719
cart. step max                      0.20942622     0.01000000    F
cart. step rms                      0.04634467     0.00666667    F
 
 
--------
Geometry
--------
Formula: C23H18O3
Atoms
  Index Symbol   x (angstrom)   y (angstrom)   z (angstrom)
      1      C    -2.83692053     1.25416676     1.56390268
      2      C    -3.68942796     1.22567453     2.66860161
      3      C    -4.04001448     0.00378806     3.30028919
      4      C    -3.50511520    -1.17820123     2.86235524
      5      C    -1.25951145    -2.48346429     0.18820970
      6      C    -0.96387479    -1.28777819    -0.49831877
      7      C    -1.47545855    -0.08048508    -0.06953266
      8      C    -2.31710952     0.00472774     1.07153312
      9      C    -2.63624431    -1.22123345     1.74546234
     10      C    -2.08603720    -2.44514341     1.28796320
     11      O    -4.22861643     2.34444588     3.24420677
     12      H    -4.70174981     0.04021142     4.16129558
     13      H    -3.75092706    -2.10592982     3.37527410
     14      H    -0.84176924    -3.42841354    -0.15102224
     15      H    -0.32190465    -1.31591610    -1.37567647
     16      H    -0.49287823     1.45575158     2.60977714
     17      H    -2.32808216    -3.36004925     1.82576617
     18      C    -2.39500312     2.55687891     0.96219112
     19      C    -3.20939860     3.31482114     0.11481967
     20      C    -2.73385910     4.52527009    -0.46475368
     21      C    -1.46214909     4.96477065    -0.23414342
     22      C     1.58902501     3.97813591     1.67811154
     23      C     1.12055101     2.81373345     2.31830144
     24      C    -0.16437632     2.35673934     2.10476480
     25      C    -1.05791161     3.03660178     1.23519887
     26      C    -0.58322452     4.23881293     0.61246760
     27      C     0.74305820     4.67771729     0.84554396
     28      O    -4.48472782     3.01752946    -0.25005437
     29      H    -3.41453406     5.06445736    -1.11764256
     30      H    -1.10929818     5.87830218    -0.70724900
     31      H     2.60722018     4.32235552     1.84243983
     32      H     1.77836139     2.26301875     2.98698039
     33      H    -1.23076860     0.82420633    -0.61462188
     34      H     1.08463948     5.58411189     0.34974024
     35      H    -3.89493312     3.11730593     2.76212539
     36      H    -4.74094479     2.08592185    -0.09513804
     37      H    -7.45062361    -1.05060546     1.77007951
     38      C    -8.15101936     0.66462997     0.74817076
     39      C    -7.25816957    -0.30083510     1.00399693
     40      C    -5.99964485    -0.45131212     0.24062731
     41      O    -5.49571423     0.40740628    -0.46927646
     42      H    -7.96126361     1.40079291    -0.02798597
     43      H    -5.51138099    -1.44215201     0.35143327
     44      H    -9.08105799     0.74196868     1.30413656
 
Total System Charge             0.00000
Bonding info available!
 
 *** GOStep9 ***

 Energy gradients wrt nuclear displacements
 ==========================================

     Atom      Cartesian (a.u./angstrom)
                 X         Y         Z
 ----------------------------------------
     1 C     0.000091  0.000689  0.000203
     2 C    -0.001875  0.002648  0.000167
     3 C    -0.004086 -0.004081 -0.001209
     4 C     0.003159  0.001302 -0.002654
     5 C     0.000706  0.001088 -0.000656
     6 C     0.000452 -0.002403 -0.000544
     7 C    -0.000472  0.000696  0.001069
     8 C    -0.000157 -0.000428  0.000514
     9 C     0.000034  0.001134 -0.000294
    10 C    -0.001011 -0.000279  0.000950
    11 O     0.001132  0.000601 -0.000978
    12 H     0.000235 -0.000509 -0.000133
    13 H     0.000074  0.000243 -0.000268
    14 H    -0.000278 -0.000050  0.000444
    15 H    -0.000236  0.000056  0.000341
    16 H     0.000613  0.000398 -0.000015
    17 H     0.000373 -0.000041  0.000076
    18 C    -0.001588  0.000005 -0.003669
    19 C    -0.000084  0.000602  0.001645
    20 C     0.001045  0.001741 -0.001457
    21 C    -0.000951  0.000675 -0.000979
    22 C     0.000420 -0.001052  0.000777
    23 C     0.001850  0.001101 -0.000138
    24 C    -0.002079 -0.000172 -0.001116
    25 C     0.003075  0.000091  0.001052
    26 C     0.000420 -0.001537  0.000959
    27 C    -0.000749  0.000710 -0.001102
    28 O     0.006591  0.000958  0.000397
    29 H    -0.000459 -0.000324 -0.000003
    30 H    -0.000405 -0.000279 -0.000120
    31 H    -0.000169  0.000187 -0.000551
    32 H    -0.000305  0.000155 -0.000351
    33 H    -0.000008 -0.000378  0.000092
    34 H    -0.000031 -0.000095 -0.000257
    35 H    -0.000960 -0.000696  0.000904
    36 H    -0.008208 -0.006504 -0.000163
    37 H     0.000269  0.001843  0.000865
    38 C    -0.002632  0.000140 -0.002678
    39 C     0.002418 -0.002670  0.001539
    40 C     0.002063  0.000630  0.001290
    41 O     0.001060  0.004069  0.001917
    42 H     0.000934 -0.000681  0.001129
    43 H    -0.000923  0.000124  0.002792
    44 H     0.000653  0.000297  0.000213
 ----------------------------------------
 Mulliken charges used for AMS results%charges...
 Rebuilding optimization coordinates

 dE(predicted):    -0.65269E-03, dE(actual):    -0.12238E-03, Trust radius:    0.800000, all in a.u.
 
----------------------------------------------------------------------
Geometry Convergence after Step   9       (Hartree/Angstrom,Angstrom)
----------------------------------------------------------------------
current energy                              -10.32760639 Hartree
energy change                      -0.00012238     0.00044000    T
constrained gradient max            0.00815726     0.00100000    F
constrained gradient rms            0.00166990     0.00066667    F
gradient max                        0.00815726
gradient rms                        0.00166990
cart. step max                      0.14969215     0.01000000    F
cart. step rms                      0.03923177     0.00666667    F
 
 
--------
Geometry
--------
Formula: C23H18O3
Atoms
  Index Symbol   x (angstrom)   y (angstrom)   z (angstrom)
      1      C    -2.84045116     1.26667575     1.56012265
      2      C    -3.67063950     1.25560398     2.68019425
      3      C    -4.02184467     0.04967604     3.33396852
      4      C    -3.51287627    -1.14649119     2.90304944
      5      C    -1.32065224    -2.50370693     0.20353888
      6      C    -1.02301709    -1.31703460    -0.50177138
      7      C    -1.51543193    -0.10010863    -0.08054725
      8      C    -2.33960173     0.00545473     1.07385557
      9      C    -2.66267196    -1.21089334     1.76845247
     10      C    -2.12918295    -2.44587014     1.31597184
     11      O    -4.18942331     2.38354124     3.25052064
     12      H    -4.66665267     0.10956355     4.20623576
     13      H    -3.75960537    -2.06495587     3.43258887
     14      H    -0.91641854    -3.45560523    -0.13380694
     15      H    -0.39606101    -1.36491418    -1.38926128
     16      H    -0.49896869     1.45421048     2.59828329
     17      H    -2.37375460    -3.35289610     1.86576765
     18      C    -2.39677541     2.57312864     0.96705793
     19      C    -3.21257561     3.34035071     0.12196779
     20      C    -2.73653600     4.55257985    -0.45091732
     21      C    -1.46076524     4.98468783    -0.22122886
     22      C     1.59173745     3.97724639     1.67805437
     23      C     1.12036271     2.80956843     2.31363504
     24      C    -0.16610974     2.35784536     2.10059442
     25      C    -1.05895640     3.04683135     1.23610092
     26      C    -0.58245233     4.25114561     0.61874524
     27      C     0.74722603     4.68475253     0.85088642
     28      O    -4.48966612     3.04789847    -0.24407148
     29      H    -3.41333832     5.09833921    -1.10249584
     30      H    -1.10179725     5.89756192    -0.69113049
     31      H     2.61214593     4.31529186     1.84342524
     32      H     1.78022312     2.25417768     2.97666842
     33      H    -1.27204741     0.79692321    -0.63863611
     34      H     1.09147938     5.59236427     0.35921256
     35      H    -3.85458116     3.14969848     2.75856192
     36      H    -4.72243845     2.11600083    -0.10600653
     37      H    -7.40534828    -1.20029761     1.62396122
     38      C    -8.11522347     0.60206188     0.77625608
     39      C    -7.21981089    -0.38261717     0.92857150
     40      C    -5.95837833    -0.45921427     0.15353770
     41      O    -5.47775004     0.43176260    -0.53439278
     42      H    -7.92569041     1.41717443     0.08358900
     43      H    -5.44091268    -1.43933823     0.22125257
     44      H    -9.03755683     0.63456172     1.34998862
 
Total System Charge             0.00000
Bonding info available!
 
 *** GOStep10 ***

 Energy gradients wrt nuclear displacements
 ==========================================

     Atom      Cartesian (a.u./angstrom)
                 X         Y         Z
 ----------------------------------------
     1 C    -0.001352  0.001410 -0.001501
     2 C    -0.000559  0.001320  0.000924
     3 C    -0.002261  0.001276 -0.002740
     4 C    -0.000126 -0.000061  0.001468
     5 C     0.000119 -0.000987  0.000334
     6 C     0.000568  0.000632 -0.000890
     7 C     0.001425  0.000406 -0.002145
     8 C    -0.000081 -0.001425  0.000905
     9 C    -0.000018  0.000528 -0.001359
    10 C     0.000191 -0.002041  0.001220
    11 O     0.002530 -0.002318 -0.003287
    12 H     0.000439  0.000070 -0.000367
    13 H    -0.000129 -0.000211  0.000187
    14 H     0.000042 -0.000312  0.000039
    15 H    -0.000262 -0.000280  0.000196
    16 H     0.000044  0.000124 -0.000208
    17 H     0.000141 -0.000036 -0.000076
    18 C     0.001773 -0.000300  0.004825
    19 C    -0.002608  0.000820 -0.000207
    20 C    -0.002259  0.001085 -0.001933
    21 C    -0.000603  0.000801 -0.000873
    22 C     0.000847  0.000091  0.000105
    23 C     0.001059 -0.000101  0.000557
    24 C    -0.002043 -0.000641 -0.000222
    25 C     0.001546  0.000253 -0.000056
    26 C    -0.000627 -0.001900  0.000624
    27 C     0.000214  0.001766 -0.001380
    28 O     0.000788 -0.008015  0.000182
    29 H    -0.000103  0.000081 -0.000399
    30 H     0.000155 -0.000382 -0.000018
    31 H     0.000226  0.000086 -0.000320
    32 H     0.000099  0.000259 -0.000341
    33 H    -0.000215 -0.000553  0.000271
    34 H     0.000095 -0.000085 -0.000233
    35 H    -0.001135 -0.000540  0.001300
    36 H    -0.001670  0.005461 -0.001448
    37 H    -0.000302  0.001568  0.001268
    38 C    -0.004124 -0.002244 -0.002889
    39 C     0.000523 -0.003803  0.001427
    40 C     0.000685  0.002947  0.005394
    41 O     0.005548  0.003708 -0.002490
    42 H     0.001161 -0.000431  0.002238
    43 H    -0.000182  0.000134  0.001136
    44 H     0.000439  0.001840  0.000781
 ----------------------------------------
 Mulliken charges used for AMS results%charges...

 dE(predicted):    -0.87802E-03, dE(actual):    -0.50456E-03, Trust radius:    0.800000, all in a.u.
 
----------------------------------------------------------------------
Geometry Convergence after Step  10       (Hartree/Angstrom,Angstrom)
----------------------------------------------------------------------
current energy                              -10.32811095 Hartree
energy change                      -0.00050456     0.00044000    F
constrained gradient max            0.00793075     0.00100000    F
constrained gradient rms            0.00171424     0.00066667    F
gradient max                        0.00793075
gradient rms                        0.00171424
cart. step max                      0.13898005     0.01000000    F
cart. step rms                      0.03492194     0.00666667    F
 
 
--------
Geometry
--------
Formula: C23H18O3
Atoms
  Index Symbol   x (angstrom)   y (angstrom)   z (angstrom)
      1      C    -2.85014947     1.29045264     1.59429232
      2      C    -3.67586674     1.28327246     2.72234223
      3      C    -4.02778898     0.07530373     3.37530386
      4      C    -3.52479775    -1.12122081     2.93714140
      5      C    -1.34883383    -2.47962445     0.22302289
      6      C    -1.05032728    -1.29236380    -0.48037860
      7      C    -1.53822645    -0.07600127    -0.05398853
      8      C    -2.35785871     0.02832884     1.10345453
      9      C    -2.68014192    -1.18701489     1.79825649
     10      C    -2.15284207    -2.42197134     1.33846493
     11      O    -4.18607698     2.41170077     3.30037736
     12      H    -4.66518063     0.13474409     4.25325465
     13      H    -3.77057146    -2.04003488     3.46631759
     14      H    -0.94687353    -3.43136099    -0.11745212
     15      H    -0.42508434    -1.33990334    -1.36921684
     16      H    -0.48690732     1.44393929     2.58422290
     17      H    -2.39562050    -3.32935659     1.88851012
     18      C    -2.39808344     2.58824113     0.98692743
     19      C    -3.21547324     3.36226358     0.14968271
     20      C    -2.73487920     4.57052739    -0.42644045
     21      C    -1.45147600     4.98922971    -0.21467421
     22      C     1.61940418     3.94135878     1.63119627
     23      C     1.14426731     2.77862606     2.27312459
     24      C    -0.15113955     2.34419096     2.08240391
     25      C    -1.05096323     3.04609538     1.23497501
     26      C    -0.56905135     4.24465619     0.61037134
     27      C     0.76996742     4.66064484     0.82011712
     28      O    -4.50113343     3.07950607    -0.19644800
     29      H    -3.41483736     5.12500011    -1.06715354
     30      H    -1.08935121     5.89868746    -0.68894003
     31      H     2.64698430     4.26547689     1.77914097
     32      H     1.80877928     2.21415627     2.92382433
     33      H    -1.29404267     0.82290337    -0.60911634
     34      H     1.11735403     5.56409968     0.32301041
     35      H    -3.84728519     3.17781467     2.81032177
     36      H    -4.72740431     2.14249235    -0.07047246
     37      H    -7.36547649    -1.29583885     1.51773762
     38      C    -8.12481808     0.51976417     0.74270996
     39      C    -7.20151002    -0.44342204     0.85947127
     40      C    -5.93521286    -0.45258191     0.08885995
     41      O    -5.49799375     0.47354539    -0.58024595
     42      H    -7.96065325     1.36446423     0.07897894
     43      H    -5.38038263    -1.41363750     0.13327601
     44      H    -9.05523073     0.49558167     1.30378667
 
Total System Charge             0.00000
Bonding info available!
 
 *** GOStep11 ***

 Energy gradients wrt nuclear displacements
 ==========================================

     Atom      Cartesian (a.u./angstrom)
                 X         Y         Z
 ----------------------------------------
     1 C     0.001052  0.000546 -0.002623
     2 C    -0.002809  0.002839  0.003899
     3 C    -0.003350  0.000015 -0.000977
     4 C    -0.000206  0.000084  0.001081
     5 C    -0.000012 -0.000704  0.000338
     6 C     0.000198  0.000793 -0.000502
     7 C     0.001332 -0.000133 -0.001377
     8 C     0.000308 -0.001506 -0.000112
     9 C     0.000593  0.000838 -0.000934
    10 C     0.000234 -0.001279 -0.000120
    11 O     0.000983 -0.002342 -0.001393
    12 H     0.000462  0.000102  0.000024
    13 H     0.000022 -0.000080  0.000105
    14 H     0.000225 -0.000196 -0.000013
    15 H    -0.000107 -0.000386  0.000166
    16 H    -0.000076  0.000003 -0.000299
    17 H     0.000220  0.000102  0.000067
    18 C     0.002581 -0.001200  0.002432
    19 C    -0.002096  0.001093 -0.002042
    20 C    -0.001576  0.000972 -0.000912
    21 C    -0.000583  0.000778 -0.000797
    22 C     0.000575  0.000256 -0.000061
    23 C     0.000637 -0.000311  0.000204
    24 C    -0.001116 -0.000769 -0.000383
    25 C     0.000701  0.000700 -0.000250
    26 C    -0.000580 -0.001485  0.000554
    27 C     0.000365  0.001441 -0.001099
    28 O     0.000643 -0.005002 -0.000497
    29 H    -0.000021  0.000075 -0.000180
    30 H     0.000303 -0.000343 -0.000103
    31 H     0.000233 -0.000006 -0.000278
    32 H     0.000179  0.000350 -0.000268
    33 H    -0.000111  0.000010  0.000255
    34 H     0.000073 -0.000104 -0.000251
    35 H    -0.000504 -0.000174  0.000852
    36 H    -0.002133  0.001565 -0.000599
    37 H    -0.000041  0.000986  0.000747
    38 C    -0.002067 -0.001911 -0.000870
    39 C    -0.000325 -0.001696  0.000255
    40 C     0.003428  0.002790  0.005902
    41 O     0.002514  0.002952 -0.002159
    42 H     0.000702 -0.000454  0.001210
    43 H    -0.000673 -0.000520  0.000921
    44 H    -0.000177  0.001316  0.000090
 ----------------------------------------
 Mulliken charges used for AMS results%charges...

 dE(predicted):    -0.50954E-03, dE(actual):     0.45838E-04, Trust radius:    0.200000, all in a.u.
 
----------------------------------------------------------------------
Geometry Convergence after Step  11       (Hartree/Angstrom,Angstrom)
----------------------------------------------------------------------
current energy                              -10.32806511 Hartree
energy change                       0.00004584     0.00044000    T
constrained gradient max            0.00569827     0.00100000    F
constrained gradient rms            0.00134452     0.00066667    F
gradient max                        0.00569827
gradient rms                        0.00134452
cart. step max                      0.03731666     0.01000000    F
cart. step rms                      0.00936389     0.00666667    F
 
 
--------
Geometry
--------
Formula: C23H18O3
Atoms
  Index Symbol   x (angstrom)   y (angstrom)   z (angstrom)
      1      C    -2.85176615     1.29245449     1.59711047
      2      C    -3.67130035     1.28667457     2.72722431
      3      C    -4.02106650     0.07954257     3.38179494
      4      C    -3.52485259    -1.11792132     2.94030010
      5      C    -1.35780588    -2.47608024     0.22170454
      6      C    -1.06319433    -1.28946235    -0.48370173
      7      C    -1.55051266    -0.07333077    -0.05626135
      8      C    -2.36475971     0.03099977     1.10372645
      9      C    -2.68495587    -1.18402955     1.79932732
     10      C    -2.15843233    -2.41810845     1.33920985
     11      O    -4.17205178     2.41903029     3.30974633
     12      H    -4.65311295     0.14111143     4.26378489
     13      H    -3.76820706    -2.03599935     3.47161543
     14      H    -0.95643243    -3.42775968    -0.11921250
     15      H    -0.44064021    -1.33662850    -1.37462395
     16      H    -0.49349662     1.45667381     2.60346771
     17      H    -2.39929955    -3.32508136     1.89105609
     18      C    -2.39920870     2.58887447     0.98828830
     19      C    -3.21546026     3.36258530     0.15277751
     20      C    -2.72991667     4.56454461    -0.43043237
     21      C    -1.44572517     4.98180267    -0.22278561
     22      C     1.61901213     3.94120640     1.63478441
     23      C     1.13996724     2.78500046     2.28489888
     24      C    -0.15483855     2.35122913     2.09353644
     25      C    -1.05212000     3.04659504     1.23721218
     26      C    -0.56612152     4.24098508     0.60692822
     27      C     0.77285129     4.65519590     0.81684928
     28      O    -4.50379943     3.08177734    -0.18887217
     29      H    -3.40894180     5.11759216    -1.07333481
     30      H    -1.08355991     5.88902125    -0.70167262
     31      H     2.64637964     4.26545132     1.78333759
     32      H     1.80132248     2.22458209     2.94244015
     33      H    -1.30905398     0.82548119    -0.61304022
     34      H     1.12228665     5.55496821     0.31432838
     35      H    -3.82993178     3.18149635     2.81514567
     36      H    -4.72412772     2.14055567    -0.06916280
     37      H    -7.35530807    -1.31800708     1.48644280
     38      C    -8.11514368     0.51679316     0.75771693
     39      C    -7.19543280    -0.45279168     0.84341346
     40      C    -5.93733085    -0.45769401     0.06106279
     41      O    -5.50185161     0.47380454    -0.60002498
     42      H    -7.96417360     1.37112802     0.10232734
     43      H    -5.37995933    -1.41784310     0.09595936
     44      H    -9.04071648     0.47631568     1.32595747
 
Total System Charge             0.00000
Bonding info available!
 
 *** GOStep12 ***

 Energy gradients wrt nuclear displacements
 ==========================================

     Atom      Cartesian (a.u./angstrom)
                 X         Y         Z
 ----------------------------------------
     1 C     0.000613 -0.000440 -0.001215
     2 C    -0.001683  0.000858  0.001092
     3 C    -0.001444 -0.000713 -0.002151
     4 C    -0.000307  0.000214 -0.000082
     5 C    -0.000134 -0.000339  0.000673
     6 C    -0.000217  0.000610 -0.000008
     7 C     0.000473 -0.000241 -0.000338
     8 C    -0.000081 -0.000687  0.000028
     9 C     0.000356  0.000613 -0.000406
    10 C     0.000344 -0.000127 -0.000170
    11 O     0.000138 -0.000940  0.000080
    12 H     0.000348  0.000301  0.000248
    13 H     0.000194  0.000032  0.000108
    14 H     0.000096 -0.000073  0.000047
    15 H     0.000042 -0.000307  0.000061
    16 H     0.000051  0.000310 -0.000151
    17 H     0.000125  0.000046  0.000237
    18 C     0.000922 -0.000671  0.000491
    19 C    -0.001004  0.001034 -0.000175
    20 C     0.000025 -0.000351 -0.000150
    21 C    -0.000144 -0.000055 -0.000536
    22 C    -0.000044  0.000384 -0.000531
    23 C    -0.000223 -0.000113 -0.000047
    24 C     0.000547 -0.000087  0.000104
    25 C    -0.000495  0.000391 -0.000628
    26 C    -0.000273 -0.000173  0.000003
    27 C     0.000269  0.000212 -0.000411
    28 O     0.000093 -0.001620 -0.001070
    29 H     0.000005 -0.000051 -0.000086
    30 H     0.000149  0.000005 -0.000061
    31 H     0.000111  0.000047 -0.000244
    32 H     0.000243  0.000220 -0.000240
    33 H    -0.000140  0.000171  0.000148
    34 H    -0.000002 -0.000026 -0.000291
    35 H     0.000151  0.000275  0.000099
    36 H    -0.002110 -0.001896 -0.000192
    37 H     0.000339  0.000286  0.000535
    38 C    -0.000304 -0.000665  0.000987
    39 C    -0.000623 -0.000342 -0.000034
    40 C     0.002026  0.003054  0.003593
    41 O     0.001906  0.000692 -0.000284
    42 H     0.000047 -0.000184  0.000037
    43 H     0.000028  0.000055  0.001263
    44 H    -0.000413  0.000291 -0.000331
 ----------------------------------------
 Mulliken charges used for AMS results%charges...

 dE(predicted):    -0.27445E-03, dE(actual):    -0.22572E-03, Trust radius:    0.400000, all in a.u.
 
----------------------------------------------------------------------
Geometry Convergence after Step  12       (Hartree/Angstrom,Angstrom)
----------------------------------------------------------------------
current energy                              -10.32829084 Hartree
energy change                      -0.00022572     0.00044000    T
constrained gradient max            0.00339169     0.00100000    F
constrained gradient rms            0.00072790     0.00066667    F
gradient max                        0.00339169
gradient rms                        0.00072790
cart. step max                      0.07833199     0.01000000    F
cart. step rms                      0.01804683     0.00666667    F
 
 
--------
Geometry
--------
Formula: C23H18O3
Atoms
  Index Symbol   x (angstrom)   y (angstrom)   z (angstrom)
      1      C    -2.85466089     1.30057113     1.60729777
      2      C    -3.66306570     1.29867329     2.74357714
      3      C    -4.01018945     0.09575289     3.40522331
      4      C    -3.52382313    -1.10441094     2.96129441
      5      C    -1.38222200    -2.47395659     0.22782633
      6      C    -1.08863371    -1.28981434    -0.48145728
      7      C    -1.56997712    -0.07156850    -0.05322774
      8      C    -2.37505048     0.03775391     1.11198510
      9      C    -2.69436968    -1.17544131     1.81267255
     10      C    -2.17522502    -2.41124079     1.35046158
     11      O    -4.15752278     2.43599638     3.32538430
     12      H    -4.63575321     0.16261853     4.29175530
     13      H    -3.76587751    -2.02026823     3.49687070
     14      H    -0.98568717    -3.42747778    -0.11333138
     15      H    -0.47283919    -1.34008460    -1.37704637
     16      H    -0.49666599     1.46065935     2.60934092
     17      H    -2.41580308    -3.31646753     1.90558608
     18      C    -2.40242780     2.59624747     0.99662675
     19      C    -3.21764447     3.37138245     0.16318335
     20      C    -2.73025251     4.57037381    -0.42241080
     21      C    -1.44361941     4.98323205    -0.22160075
     22      C     1.62280157     3.93358918     1.62744404
     23      C     1.14075417     2.78146234     2.28259755
     24      C    -0.15598102     2.35289059     2.09642364
     25      C    -1.05342459     3.04975198     1.24101578
     26      C    -0.56409220     4.24080082     0.60576401
     27      C     0.77729256     4.64855819     0.81036044
     28      O    -4.51038062     3.09497684    -0.17044577
     29      H    -3.40892446     5.12322296    -1.06604701
     30      H    -1.08030825     5.88598850    -0.70827754
     31      H     2.65198894     4.25388309     1.77139634
     32      H     1.80110470     2.22032169     2.94066434
     33      H    -1.33057780     0.82490024    -0.61478973
     34      H     1.12877543     5.54519462     0.30340400
     35      H    -3.81849126     3.19306296     2.81981403
     36      H    -4.71856574     2.14940464    -0.06579862
     37      H    -7.33277445    -1.37145102     1.41048960
     38      C    -8.09444651     0.49340765     0.76523688
     39      C    -7.17820824    -0.48230347     0.79879961
     40      C    -5.92773316    -0.46569579     0.00593652
     41      O    -5.49950432     0.48151150    -0.63750800
     42      H    -7.95887944     1.37036078     0.13627039
     43      H    -5.36340738    -1.42271690     0.01762736
     44      H    -9.00849705     0.42908349     1.34996139
 
Total System Charge             0.00000
Bonding info available!
 
 *** GOStep13 ***

 Energy gradients wrt nuclear displacements
 ==========================================

     Atom      Cartesian (a.u./angstrom)
                 X         Y         Z
 ----------------------------------------
     1 C    -0.000191 -0.000902 -0.000179
     2 C     0.000580 -0.001784 -0.000673
     3 C    -0.000318 -0.000275 -0.002637
     4 C    -0.000652  0.000517  0.000239
     5 C    -0.000257 -0.000182  0.000608
     6 C    -0.000204  0.000450  0.000429
     7 C     0.000094 -0.000467  0.000215
     8 C     0.000247  0.000355 -0.000619
     9 C     0.000299 -0.000345 -0.000236
    10 C     0.000550  0.000701 -0.000500
    11 O    -0.000957  0.000401  0.001226
    12 H     0.000036  0.000476  0.000419
    13 H     0.000164  0.000175  0.000198
    14 H     0.000101  0.000023  0.000146
    15 H     0.000080 -0.000254 -0.000088
    16 H     0.000031  0.000141 -0.000117
    17 H    -0.000026 -0.000007  0.000369
    18 C    -0.000284  0.000287  0.000391
    19 C     0.000535  0.000035 -0.000212
    20 C     0.000324 -0.000887  0.000874
    21 C    -0.000048 -0.000268  0.000236
    22 C    -0.000288  0.000627 -0.000740
    23 C    -0.000842 -0.000264 -0.000358
    24 C     0.001515  0.000213  0.000418
    25 C    -0.001451  0.000174 -0.000392
    26 C     0.000076  0.000800 -0.000926
    27 C     0.000116 -0.000662  0.000212
    28 O    -0.001492 -0.000234 -0.001236
    29 H    -0.000026 -0.000123 -0.000298
    30 H    -0.000016  0.000007 -0.000524
    31 H     0.000028  0.000056 -0.000284
    32 H     0.000186  0.000154 -0.000082
    33 H    -0.000184  0.000100 -0.000014
    34 H    -0.000116  0.000064 -0.000445
    35 H     0.000573  0.000268 -0.000554
    36 H    -0.000527 -0.002115 -0.000139
    37 H     0.000510 -0.000567  0.000184
    38 C     0.000917 -0.000033  0.001406
    39 C    -0.001224  0.000967 -0.000268
    40 C     0.000351  0.002143  0.003976
    41 O     0.002187  0.000168 -0.000346
    42 H    -0.000717  0.000090 -0.000827
    43 H     0.000518  0.000296  0.001113
    44 H    -0.000199 -0.000322  0.000033
 ----------------------------------------
 Mulliken charges used for AMS results%charges...

 dE(predicted):    -0.39671E-03, dE(actual):    -0.17466E-03, Trust radius:    0.400000, all in a.u.
 
----------------------------------------------------------------------
[...]
      4      C    -3.60162443    -0.93334970     3.23942423
      5      C    -1.70559036    -2.43718387     0.39710657
      6      C    -1.38086755    -1.27482132    -0.33408230
      7      C    -1.76904056    -0.02835525     0.10927782
      8      C    -2.50471152     0.13314322     1.31446539
      9      C    -2.85286114    -1.05696398     2.04083745
     10      C    -2.43410031    -2.32338152     1.55937060
     11      O    -4.04149074     2.63628529     3.59543757
     12      H    -4.55511328     0.39989707     4.62598410
     13      H    -3.86245952    -1.83143969     3.79562812
     14      H    -1.38216331    -3.41380015     0.04397819
     15      H    -0.81433832    -1.36329985    -1.25866711
     16      H    -0.42450772     1.46196794     2.58462308
     17      H    -2.69595863    -3.21045710     2.13353565
     18      C    -2.41929635     2.68688448     1.15872447
     19      C    -3.27375190     3.50814376     0.41567270
     20      C    -2.79137203     4.67310798    -0.23605640
     21      C    -1.46642377     5.00668482    -0.18620093
     22      C     1.71714994     3.79210950     1.33636854
     23      C     1.24297604     2.67928640     2.06182526
     24      C    -0.08848525     2.32498121     2.02114845
     25      C    -1.02879365     3.06243889     1.25193969
     26      C    -0.54582334     4.21767778     0.54930269
     27      C     0.83183884     4.54690212     0.60089673
     28      O    -4.61482794     3.28894816     0.24579937
     29      H    -3.50426100     5.25922744    -0.80932211
     30      H    -1.10479375     5.88046805    -0.72405130
     31      H     2.77255096     4.05273099     1.36358878
     32      H     1.93597864     2.08976848     2.65829203
     33      H    -1.50713918     0.84803495    -0.47287320
     34      H     1.17905079     5.41492011     0.04381036
     35      H    -3.73298005     3.37411785     3.04550666
     36      H    -4.79086308     2.33418515     0.22497622
     37      H    -6.97297192    -1.91221649     0.32885440
     38      C    -7.74727954     0.01907589     0.69975282
     39      C    -6.88172518    -0.84086761     0.14869355
     40      C    -5.76307266    -0.43394656    -0.73483314
     41      O    -5.42206895     0.71296893    -0.97859742
     42      H    -7.66825347     1.08801911     0.51808007
     43      H    -5.20969413    -1.28681737    -1.18878275
     44      H    -8.55568174    -0.32456567     1.33970116
 
Total System Charge             0.00000
Bonding info available!
 
 *** GOStep122 ***

 Energy gradients wrt nuclear displacements
 ==========================================

     Atom      Cartesian (a.u./angstrom)
                 X         Y         Z
 ----------------------------------------
     1 C    -0.000776 -0.000279  0.000542
     2 C     0.000000 -0.000164 -0.000012
     3 C     0.000015  0.000180  0.000072
     4 C    -0.000152 -0.000252  0.000092
     5 C     0.000142 -0.000023  0.000318
     6 C     0.000014 -0.000083  0.000168
     7 C     0.000209  0.000642  0.000114
     8 C     0.000001  0.000404 -0.000349
     9 C     0.000289 -0.000366 -0.000900
    10 C     0.000422  0.000214  0.000126
    11 O    -0.000016  0.000168 -0.000093
    12 H     0.000041  0.000235  0.000079
    13 H     0.000077  0.000186  0.000244
    14 H     0.000094 -0.000050  0.000352
    15 H     0.000039 -0.000138  0.000189
    16 H     0.000008  0.000164 -0.000037
    17 H     0.000036  0.000076  0.000305
    18 C    -0.000050  0.000068 -0.000023
    19 C    -0.000083 -0.000126  0.000092
    20 C    -0.000101 -0.000041 -0.000176
    21 C    -0.000089 -0.000082 -0.000314
    22 C    -0.000054  0.000119 -0.000222
    23 C    -0.000022  0.000168 -0.000136
    24 C    -0.000013  0.000117 -0.000121
    25 C    -0.000054  0.000098 -0.000070
    26 C    -0.000068  0.000020 -0.000231
    27 C    -0.000078  0.000039 -0.000283
    28 O    -0.002048  0.000336 -0.000144
    29 H    -0.000104 -0.000157 -0.000295
    30 H    -0.000117 -0.000094 -0.000356
    31 H    -0.000060  0.000148 -0.000249
    32 H    -0.000006  0.000221 -0.000101
    33 H     0.000046 -0.000087  0.000053
    34 H    -0.000099  0.000009 -0.000346
    35 H    -0.000016  0.000131 -0.000149
    36 H     0.002883 -0.000530 -0.001230
    37 H     0.000368 -0.000107  0.000681
    38 C    -0.000305 -0.000178 -0.000295
    39 C    -0.000419  0.000478 -0.000095
    40 C    -0.001706  0.000987  0.001408
    41 O     0.001661 -0.001205 -0.000458
    42 H     0.000007 -0.000151  0.000047
    43 H     0.000052 -0.000979  0.001641
    44 H     0.000035 -0.000115  0.000163
 ----------------------------------------
 Mulliken charges used for AMS results%charges...

 dE(predicted):    -0.29676E-04, dE(actual):     0.11677E-04, Trust radius:    0.020000, all in a.u.
 
----------------------------------------------------------------------
Geometry Convergence after Step 122       (Hartree/Angstrom,Angstrom)
----------------------------------------------------------------------
current energy                              -10.32890050 Hartree
energy change                       0.00001168     0.00044000    T
constrained gradient max            0.00291217     0.00100000    F
constrained gradient rms            0.00049185     0.00066667    T
gradient max                        0.00291217
gradient rms                        0.00049185
cart. step max                      0.00729508     0.01000000    T
cart. step rms                      0.00179769     0.00666667    T
 
 
--------
Geometry
--------
Formula: C23H18O3
Atoms
  Index Symbol   x (angstrom)   y (angstrom)   z (angstrom)
      1      C    -2.89006911     1.42474966     1.82298755
      2      C    -3.63071899     1.47448233     3.00493898
      3      C    -3.98949741     0.29572566     3.70546311
      4      C    -3.60289829    -0.93239502     3.24026597
      5      C    -1.70732119    -2.43688599     0.39800855
      6      C    -1.38229580    -1.27465154    -0.33325041
      7      C    -1.77013651    -0.02805472     0.11003756
      8      C    -2.50575515     0.13371498     1.31522224
      9      C    -2.85420429    -1.05625587     2.04166641
     10      C    -2.43578999    -2.32281354     1.56027128
     11      O    -4.04188088     2.63735573     3.59610054
     12      H    -4.55600349     0.40117182     4.62677929
     13      H    -3.86395140    -1.83038974     3.79652015
     14      H    -1.38414937    -3.41361007     0.04494361
     15      H    -0.81578736    -1.36333221    -1.25782919
     16      H    -0.42492397     1.46198781     2.58478690
     17      H    -2.69788648    -3.20978351     2.13449124
     18      C    -2.41970423     2.68739498     1.15926590
     19      C    -3.27408483     3.50897392     0.41648715
     20      C    -2.79144185     4.67359402    -0.23564980
     21      C    -1.46631651     5.00654748    -0.18643155
     22      C     1.71730378     3.79084694     1.33512378
     23      C     1.24290059     2.67842806     2.06105013
     24      C    -0.08873200     2.32470573     2.02096178
     25      C    -1.02900288     3.06238021     1.25191638
     26      C    -0.54578959     4.21725984     0.54885973
     27      C     0.83204485     4.54587287     0.59983175
     28      O    -4.61535803     3.29041895     0.24727382
     29      H    -3.50429893     5.25992864    -0.80873443
     30      H    -1.10449064     5.88003162    -0.72463488
     31      H     2.77283523     4.05098839     1.36185915
     32      H     1.93586350     2.08875943     2.65741336
     33      H    -1.50800744     0.84822086    -0.47217813
     34      H     1.17942806     5.41360522     0.04240758
     35      H    -3.73330240     3.37510174     3.04609618
     36      H    -4.79180329     2.33573552     0.22629976
     37      H    -6.96920237    -1.91436952     0.32248058
     38      C    -7.74292728     0.01548827     0.70188780
     39      C    -6.87854293    -0.84238550     0.14580699
     40      C    -5.76180907    -0.43229171    -0.73869211
     41      O    -5.42197703     0.71548835    -0.98000741
     42      H    -7.66447386     1.08508879     0.52386372
     43      H    -5.20880778    -1.28357887    -1.19607783
     44      H    -8.54982284    -0.33051446     1.34246733
 
Total System Charge             0.00000
Bonding info available!
 
 *** GOStep123 ***

 Energy gradients wrt nuclear displacements
 ==========================================

     Atom      Cartesian (a.u./angstrom)
                 X         Y         Z
 ----------------------------------------
     1 C    -0.000779 -0.000284  0.000542
     2 C    -0.000008 -0.000162 -0.000016
     3 C     0.000013  0.000180  0.000070
     4 C    -0.000156 -0.000256  0.000089
     5 C     0.000143 -0.000024  0.000319
     6 C     0.000013 -0.000082  0.000167
     7 C     0.000212  0.000646  0.000116
     8 C     0.000000  0.000404 -0.000354
     9 C     0.000281 -0.000358 -0.000909
    10 C     0.000424  0.000214  0.000126
    11 O    -0.000015  0.000166 -0.000093
    12 H     0.000041  0.000235  0.000079
    13 H     0.000077  0.000186  0.000244
    14 H     0.000094 -0.000050  0.000352
    15 H     0.000039 -0.000138  0.000189
    16 H     0.000008  0.000165 -0.000037
    17 H     0.000036  0.000076  0.000304
    18 C    -0.000052  0.000068 -0.000022
    19 C    -0.000084 -0.000129  0.000095
    20 C    -0.000102 -0.000043 -0.000177
    21 C    -0.000092 -0.000082 -0.000313
    22 C    -0.000055  0.000120 -0.000223
    23 C    -0.000022  0.000169 -0.000135
    24 C    -0.000013  0.000117 -0.000120
    25 C    -0.000054  0.000098 -0.000071
    26 C    -0.000069  0.000019 -0.000232
    27 C    -0.000079  0.000040 -0.000283
    28 O    -0.002034  0.000341 -0.000149
    29 H    -0.000104 -0.000157 -0.000296
    30 H    -0.000118 -0.000094 -0.000358
    31 H    -0.000061  0.000149 -0.000249
    32 H    -0.000006  0.000222 -0.000101
    33 H     0.000047 -0.000087  0.000054
    34 H    -0.000099  0.000009 -0.000347
    35 H    -0.000018  0.000130 -0.000149
    36 H     0.002871 -0.000529 -0.001222
    37 H     0.000366 -0.000113  0.000674
    38 C    -0.000287 -0.000177 -0.000271
    39 C    -0.000428  0.000484 -0.000104
    40 C    -0.001688  0.000982  0.001446
    41 O     0.001660 -0.001200 -0.000480
    42 H     0.000005 -0.000151  0.000048
    43 H     0.000055 -0.000986  0.001634
    44 H     0.000036 -0.000116  0.000164
 ----------------------------------------
 Mulliken charges used for AMS results%charges...

 dE(predicted):    -0.29534E-04, dE(actual):     0.11126E-04, Trust radius:    0.020000, all in a.u.
 
----------------------------------------------------------------------
Geometry Convergence after Step 123       (Hartree/Angstrom,Angstrom)
----------------------------------------------------------------------
current energy                              -10.32888938 Hartree
energy change                       0.00001113     0.00044000    T
constrained gradient max            0.00290084     0.00100000    F
constrained gradient rms            0.00049108     0.00066667    T
gradient max                        0.00290084
gradient rms                        0.00049108
cart. step max                      0.00727441     0.01000000    T
cart. step rms                      0.00177884     0.00666667    T
 
 
--------
Geometry
--------
Formula: C23H18O3
Atoms
  Index Symbol   x (angstrom)   y (angstrom)   z (angstrom)
      1      C    -2.89074765     1.42545908     1.82370757
      2      C    -3.63132856     1.47544876     3.00569290
      3      C    -3.99033343     0.29682531     3.70633063
      4      C    -3.60408302    -0.93142074     3.24118677
      5      C    -1.70906436    -2.43659247     0.39893223
      6      C    -1.38376321    -1.27449381    -0.33241862
      7      C    -1.77126064    -0.02776452     0.11079901
      8      C    -2.50678805     0.13428783     1.31600322
      9      C    -2.85550869    -1.05553910     2.04254560
     10      C    -2.43745256    -2.32224001     1.56121800
     11      O    -4.04216719     2.63845122     3.59682135
     12      H    -4.55674222     0.40247822     4.62768319
     13      H    -3.86532715    -1.82931641     3.79750955
     14      H    -1.38615693    -3.41342642     0.04592850
     15      H    -0.81730644    -1.36338369    -1.25700968
     16      H    -0.42533425     1.46198322     2.58490872
     17      H    -2.69976452    -3.20910007     2.13550926
     18      C    -2.42011009     2.68791023     1.15981904
     19      C    -3.27443203     3.50980497     0.41732764
     20      C    -2.79153570     4.67409477    -0.23520379
     21      C    -1.46623291     5.00643311    -0.18662893
     22      C     1.71745652     3.78957477     1.33385551
     23      C     1.24283019     2.67754661     2.06023443
     24      C    -0.08897470     2.32441521     2.02074561
     25      C    -1.02921214     3.06232497     1.25188821
     26      C    -0.54576543     4.21685589     0.54842521
     27      C     0.83224301     4.54485196     0.59876787
     28      O    -4.61590327     3.29186952     0.24878609
     29      H    -3.50436972     5.26064991    -0.80809029
     30      H    -1.10422264     5.87963042    -0.72517230
     31      H     2.77311916     4.04923150     1.36009928
     32      H     1.93575821     2.08771196     2.65647339
     33      H    -1.50892613     0.84839193    -0.47149871
     34      H     1.17979307     5.41230921     0.04102005
     35      H    -3.73353871     3.37610246     3.04672216
     36      H    -4.79275513     2.33726442     0.22766108
     37      H    -6.96551586    -1.91652483     0.31607635
     38      C    -7.73868235     0.01189128     0.70380603
     39      C    -6.87541792    -0.84392777     0.14285495
     40      C    -5.76055539    -0.43066321    -0.74254619
     41      O    -5.42188473     0.71797797    -0.98138069
     42      H    -7.66077348     1.08212255     0.52936368
     43      H    -5.20791776    -1.28034458    -1.20335225
     44      H    -8.54413463    -0.33642610     1.34494887
 
Total System Charge             0.00000
Bonding info available!
 
 *** GOStep124 ***

 Energy gradients wrt nuclear displacements
 ==========================================

     Atom      Cartesian (a.u./angstrom)
                 X         Y         Z
 ----------------------------------------
     1 C    -0.000782 -0.000287  0.000542
     2 C    -0.000016 -0.000162 -0.000020
     3 C     0.000013  0.000178  0.000068
     4 C    -0.000160 -0.000258  0.000086
     5 C     0.000144 -0.000023  0.000319
     6 C     0.000012 -0.000082  0.000166
     7 C     0.000215  0.000647  0.000117
     8 C    -0.000001  0.000403 -0.000358
     9 C     0.000270 -0.000348 -0.000916
    10 C     0.000427  0.000214  0.000127
    11 O    -0.000013  0.000166 -0.000094
    12 H     0.000041  0.000235  0.000078
    13 H     0.000077  0.000186  0.000244
    14 H     0.000095 -0.000050  0.000351
    15 H     0.000039 -0.000138  0.000188
    16 H     0.000008  0.000165 -0.000037
    17 H     0.000036  0.000076  0.000303
    18 C    -0.000052  0.000070 -0.000020
    19 C    -0.000083 -0.000129  0.000098
    20 C    -0.000101 -0.000044 -0.000179
    21 C    -0.000092 -0.000080 -0.000313
    22 C    -0.000054  0.000120 -0.000224
    23 C    -0.000022  0.000170 -0.000135
    24 C    -0.000014  0.000118 -0.000121
    25 C    -0.000053  0.000098 -0.000073
    26 C    -0.000069  0.000018 -0.000233
    27 C    -0.000080  0.000041 -0.000283
    28 O    -0.002024  0.000342 -0.000154
    29 H    -0.000105 -0.000158 -0.000296
    30 H    -0.000118 -0.000095 -0.000359
    31 H    -0.000061  0.000150 -0.000250
    32 H    -0.000006  0.000223 -0.000102
    33 H     0.000048 -0.000087  0.000054
    34 H    -0.000100  0.000009 -0.000348
    35 H    -0.000019  0.000130 -0.000149
    36 H     0.002856 -0.000530 -0.001215
    37 H     0.000363 -0.000117  0.000666
    38 C    -0.000277 -0.000160 -0.000242
    39 C    -0.000424  0.000469 -0.000114
    40 C    -0.001669  0.000971  0.001483
    41 O     0.001654 -0.001195 -0.000500
    42 H     0.000005 -0.000152  0.000053
    43 H     0.000056 -0.000989  0.001626
    44 H     0.000036 -0.000114  0.000166
 ----------------------------------------
 Mulliken charges used for AMS results%charges...

 dE(predicted):    -0.29393E-04, dE(actual):     0.10373E-04, Trust radius:    0.020000, all in a.u.
 
----------------------------------------------------------------------
Geometry Convergence after Step 124       (Hartree/Angstrom,Angstrom)
----------------------------------------------------------------------
current energy                              -10.32887900 Hartree
energy change                       0.00001037     0.00044000    T
constrained gradient max            0.00288606     0.00100000    F
constrained gradient rms            0.00048961     0.00066667    T
gradient max                        0.00288606
gradient rms                        0.00048961
cart. step max                      0.00726935     0.01000000    T
cart. step rms                      0.00177148     0.00666667    T
 
 
--------
Geometry
--------
Formula: C23H18O3
Atoms
  Index Symbol   x (angstrom)   y (angstrom)   z (angstrom)
      1      C    -2.89140428     1.42617099     1.82449073
      2      C    -3.63188065     1.47642047     3.00653449
      3      C    -3.99109742     0.29793366     3.70729891
      4      C    -3.60521836    -0.93043940     3.24219291
      5      C    -1.71082427    -2.43629997     0.39990238
      6      C    -1.38526141    -1.27433873    -0.33155050
      7      C    -1.77240493    -0.02747446     0.11160033
      8      C    -2.50781861     0.13486335     1.31683734
      9      C    -2.85679857    -1.05481813     2.04348766
     10      C    -2.43910988    -2.32166375     1.56222438
     11      O    -4.04236933     2.63955563     3.59764460
     12      H    -4.55737794     0.40379554     4.62870675
     13      H    -3.86663892    -1.82823509     3.79859308
     14      H    -1.38818730    -3.41324524     0.04695809
     15      H    -0.81887332    -1.36344074    -1.25616395
     16      H    -0.42566383     1.46196815     2.58500379
     17      H    -2.70162567    -3.20841173     2.13659605
     18      C    -2.42049861     2.68842547     1.16042255
     19      C    -3.27477722     3.51063652     0.41823465
     20      C    -2.79165176     4.67460354    -0.23469210
     21      C    -1.46617386     5.00633048    -0.18679147
     22      C     1.71763598     3.78830578     1.33249524
     23      C     1.24281570     2.67666178     2.05933597
     24      C    -0.08916283     2.32412091     2.02049854
     25      C    -1.02939968     3.06227038     1.25187117
     26      C    -0.54574388     4.21645863     0.54799133
     27      C     0.83243893     4.54383960     0.59765434
     28      O    -4.61644340     3.29331755     0.25037133
     29      H    -3.50447946     5.26137919    -0.80736010
     30      H    -1.10399947     5.87924638    -0.72567945
     31      H     2.77343045     4.04747769     1.35820575
     32      H     1.93573382     2.08665477     2.65541560
     33      H    -1.50987321     0.84856155    -0.47078557
     34      H     1.18013227     5.41102585     0.03957444
     35      H    -3.73369795     3.37710807     3.04744054
     36      H    -4.79369958     2.33879245     0.22908726
     37      H    -6.96189879    -1.91866610     0.30955829
     38      C    -7.73458952     0.00824527     0.70546730
     39      C    -6.87236051    -0.84546939     0.13978210
     40      C    -5.75929767    -0.42901810    -0.74641596
     41      O    -5.42176570     0.72047937    -0.98272203
     42      H    -7.65725117     1.07909166     0.53457417
     43      H    -5.20700473    -1.27707339    -1.21062160
     44      H    -8.53865292    -0.34241094     1.34708120
 
Total System Charge             0.00000
Bonding info available!
 
 *** GOStep125 ***
