

 Parallel Execution: Process Information
 ==============================================================================
 Rank   Node Name                              NodeID   MyNodeRank  NodeMaster
    0   node115                                   0          0          0
    1   node115                                   0          1         -1
    2   node115                                   0          2         -1
    3   node115                                   0          3         -1
 ==============================================================================


May use up to 122928MB of RAM as shared memory on node 0

 *******************************************************************************
 *                                                                             *
 *  --------------------------------                                           *
 *   Amsterdam Modeling Suite (AMS)              2021.102                      *
 *  --------------------------------                                           *
 *                                               r95042 2021-06-07             *
 *                                                                             *
 *                                                                             *
 *                              =================                              *
 *                              |               |                              *
 *                              |     A M S     |                              *
 *                              |               |                              *
 *                              =================                              *
 *                                                                             *
 *                                                                             *
 *   Online information and documentation:  https://www.scm.com/support/       *
 *   E-mail:  support@scm.com   info@scm.com                                   *
 *                                                                             *
 *   Scientific publications using AMS results must be properly referenced     *
 *   See the User Manuals (or the web site) for recommended citations          *
 *   The terms and conditions of the End User License Agreement apply to       *
 *   the use of AMS, https://www.scm.com/license-terms/                        *
 *                                                                             *
 **********************  x86_64_linux_intel / intelmpi  ************************
 
 Licensed to: VU/FEW (+ SARA) / ALGEMEEN / Amsterdam / THE NETHERLANDS
 SCM User ID: u7668
  
 AMS 2021.102  RunTime: Jan22-2022 23:46:58  ShM Nodes: 1  Procs: 4

 AMS jobname: 37.achiral_catalyst.H_H_TiCl4.TS
 AMS jobid  : 561473409

 Start   directory: /scistor/tc/yhk800/MasterProject/calculations/achiral_catalyst_H_H_TiCl4/37.achiral_catalyst.H_H_TiCl4.TS/
 Results directory: /scistor/tc/yhk800/MasterProject/calculations/achiral_catalyst_H_H_TiCl4/37.achiral_catalyst.H_H_TiCl4.TS/
 Scratch directory: /scratch/3981/amstmp_37.achiral_catalyst.H_H_TiCl4.TS_kid0.561473409/


 Communication costs MPI_COMM_WORLD:      0.015 usec per message,   0.0076 usec per 8-byte item
 Communication costs for intra-node:      0.892 usec per message,   0.0036 usec per 8-byte item

 RNG seed: 1252667902 1892666530 -42834542 -1719188781 -34946866 2117369452 -1467660833 1398344427



                      ************************************************************************
                      *  ADF 2021.102  RunTime: Jan22-2022 23:46:59  ShM Nodes: 1  Procs: 4  *
                      ************************************************************************
  
       *****************************
       *  TRANSITION STATE SEARCH  *
       *****************************

Optimization Method                    Quasi Newton
Optimization Coordinates               Delocalized Coordinates
Optimize lattice                       F
 
 ------------------------------------------------------
 Convergence criteria (Hartree,Angstrom)
 ------------------------------------------------------
 Maximum gradient               0.001000000000
 Maximum rms gradient           0.000666666667
 Maximum step allowed           0.010000000000
 Maximum rms step allowed       0.006666666667
 Maximum energy change allowe   0.000170000000
 Maximum stress energy allowe   0.000500000000
 
Initial model Hessian                  Automatic Hessian
 
------------------------------------
Quasi-Newton Optimizer Parameters
------------------------------------
Hessian Update Method                  Bofill
Maximum number of steps                  250
First GDIIS cycle                          0
Maximum GDIIS vectors                      0
Trust radius (bohr)                        0.200000
Trust radius varies                        F
Constraints converged at all steps         T
Use projector                              T
 
 Rigid motions settings for: old optimizer
 Atomic rotations (x,y,z):     T T T
 Atomic translations (x,y,z):  T T T
 Tolerance:                   1.000000000000000E-006
 
           1  TSRC entries:
    i   type      a1    a2    a3    a4    coef
    1 Distance     2    10               -1.000
 
--------
Geometry
--------
Formula: C4H7Cl4OTi
Atoms
  Index Symbol   x (angstrom)   y (angstrom)   z (angstrom)
      1      H     0.19369716    -1.85361092    -0.24516176
      2      C    -0.92057816    -0.12292898     0.28183759
      3      C     0.21368396    -0.77846351    -0.06958517
      4      C     1.52168394    -0.13059856    -0.22805405
      5      O     1.77804810     1.04912696    -0.01680607
      6      H    -0.93117356     0.95749943     0.37346659
      7      H    -1.16677948    -1.14795174     3.01281369
      8      H    -2.10496465     0.45730942     2.86041604
      9      H    -0.24714630     0.47546451     3.02589233
     10      C    -1.16197426    -0.07675120     2.85297480
     11      H    -1.86354143    -0.62823164     0.30157320
     12      H     2.30109647    -0.78460704    -0.55924738
     13     Ti     3.04408724     6.29152726     0.61497279
     14     Cl     2.49853305     4.24557076     0.37517415
     15     Cl     3.66295380     6.63068101     2.62570641
     16     Cl     1.36861311     7.53042178     0.16888134
     17     Cl     4.64624899     6.75943549    -0.70987074
 
Total System Charge             0.00000
 
 
----------------
ADF Engine Input
----------------
 
 NumericalQuality VeryGood
 SCF
 Converge 1.0e-6
 Iterations 99
 End
 SYMMETRY NOSYM
 SpinPolarization 1.0
 Unrestricted Yes
 XC
 GGA OLYP
 End
 basis
 core None
 type TZ2P
 End
 

 Title: *** (NO TITLE) ***

Bad geometry: added dihedral    12    4   14   10
 Using automatic Hessian for delocalized coordinates.
 *** GOStep1 ***

 Energy gradients wrt nuclear displacements
 ==========================================

     Atom      Cartesian (a.u./angstrom)
                 X         Y         Z
 ----------------------------------------
     1 H     0.000566  0.000643 -0.000128
     2 C    -0.016331 -0.006807  0.002233
     3 C     0.004506 -0.002335 -0.001801
     4 C     0.029160 -0.031724 -0.014348
     5 O     0.005957  0.002482 -0.001144
     6 H    -0.001839 -0.001401  0.000450
     7 H    -0.000025 -0.000075  0.000013
     8 H     0.000132  0.000145 -0.000114
     9 H    -0.000348  0.000042  0.000231
    10 C     0.000033 -0.000057 -0.001713
    11 H     0.017385  0.009312 -0.000218
    12 H    -0.038314  0.033555  0.016917
    13 Ti    0.001683  0.008846  0.001284
    14 Cl    0.007424  0.027313  0.003198
    15 Cl   -0.011930 -0.006673 -0.038968
    16 Cl    0.032635 -0.024153  0.008683
    17 Cl   -0.030693 -0.009112  0.025424
 ----------------------------------------
 Mulliken charges used for AMS results%charges...
           Primitive Internal Coordinates (atoms in internal order)
-------------------------------------------------------------------------------
    index    type      i       j       k       l   value(A,deg)     TSRC Vect
-------------------------------------------------------------------------------
       1     bnd       1       3       0       0     1.08957265     0.00000000
       2     bnd       2       6       0       0     1.08435865     0.00000000
       3     bnd       2       3       0       0     1.35638270     0.09448326
       4     bnd       3       4       0       0     1.46823204    -0.00065554
       5     bnd       4      12       0       0     1.07000000     0.00000000
       6     bnd       4       5       0       0     1.22560214     0.00408199
       7     bnd       8      10       0       0     1.08374674    -0.00000000
       8     bnd       7      10       0       0     1.08307071    -0.00000000
       9     bnd       9      10       0       0     1.08247534    -0.00000000
      10     bnd       2      11       0       0     1.07000000    -0.00000000
      11     bnd      13      15       0       0     2.13097883    -0.00000000
      12     bnd      13      17       0       0     2.13097883     0.00000000
      13     bnd      13      14       0       0     2.13097883     0.00000000
      14     bnd      13      16       0       0     2.13097883     0.00000000
      15     bnd       2      10       0       0     2.58285714    -0.49465696
      16     bnd       3      10       0       0     3.30547916    -0.20145821
      17     bnd       5      14       0       0     3.30000000     0.00412367
      18     bnd      10      14       0       0     6.18233588    -0.00462861
      19     ang       6       2       3       0   120.77103538    -0.00155807
      20     ang       6       2      11       0   117.41061259    -0.00516771
      21     ang       6       2      10       0    84.09702452    -0.03658672
      22     ang       3       2      11       0   120.89733866     0.00251695
      23     ang       3       2      10       0   110.16403203     0.10148945
      24     ang      11       2      10       0    84.70507552    -0.04680683
      25     ang       1       3       2       0   120.21909900     0.00771909
      26     ang       1       3       4       0   115.74474309    -0.02793429
      27     ang       1       3      10       0   110.14017713     0.02751941
      28     ang       2       3       4       0   124.03410402     0.01987621
      29     ang       2       3      10       0    47.18020735    -0.11478148
      30     ang       4       3      10       0   111.87064539     0.05587390
      31     ang       3       4      12       0   114.37019830     0.00437046
      32     ang       3       4       5       0   126.33327012    -0.00649997
      33     ang      12       4       5       0   119.29637410     0.00209652
      34     lai       4       5      14      10   177.35939490     0.00407205
      35     ang       8      10       7       0   118.84988012     0.00019898
      36     ang       8      10       9       0   118.87311123     0.00068515
      37     ang       8      10       2       0    95.56458342    -0.00677922
      38     ang       8      10       3       0   118.21664669     0.00651189
      39     ang       8      10      14       0    99.98629260     0.00324551
      40     ang       7      10       9       0   118.99448321    -0.00014786
      41     ang       7      10       2       0    97.44889075     0.00158139
      42     ang       7      10       3       0    85.54757082    -0.00511608
      43     ang       7      10      14       0   138.87295541    -0.00297635
      44     ang       9      10       2       0    95.11483796     0.00314276
      45     ang       9      10       3       0    84.13492797    -0.00351637
      46     ang       9      10      14       0    37.53046017    -0.00408051
      47     ang       2      10      14       0    63.78081501     0.00382675
      48     ang       3      10      14       0    63.10523560     0.00164132
      49     ang      15      13      17       0   109.47122075    -0.00000000
      50     ang      15      13      14       0   109.47122057     0.00000000
      51     ang      15      13      16       0   109.47122072    -0.00000000
      52     ang      17      13      14       0   109.47122076     0.00000000
      53     ang      17      13      16       0   109.47122056     0.00000000
      54     ang      14      13      16       0   109.47122044    -0.00000000
      55     ang      13      14      10       0   141.05297933    -0.00000000
      56     ang       5      14      10       0    40.63572331    -0.00719249
      57     lao       4       5      14      10    91.68866753     0.01043794
      58     dih       6       2       3       1   185.43025046    -0.01473179
      59     dih       6       2       3       4     5.97435318     0.03031747
      60     dih       6       2       3      10    95.22935729     0.01812474
      61     dih      11       2       3       1    -5.83693566    -0.04077567
      62     dih      11       2       3       4   174.70716706     0.00427359
      63     dih      11       2       3      10   263.96217117    -0.00791914
      64     dih      10       2       3       1    90.20089317    -0.03285653
      65     dih      10       2       3       4   -89.25500411     0.01219273
      66     dih       1       3       4      12     3.58206089    -0.02501890
      67     dih       1       3       4       5   183.72850675    -0.00968451
      68     dih       2       3       4      12   183.06008625    -0.06807227
      69     dih       2       3       4       5     3.20653211    -0.05273787
      70     dih      10       3       4      12   130.84520156     0.04039810
      71     dih      10       3       4       5   -49.00835258     0.05573249
      72     dih      15      13      14      10    53.29899455    -0.00000000
      73     dih      17      13      14      10   173.29899473    -0.00000000
      74     dih      16      13      14      10   -66.70100540    -0.00000000
      75     dih       6       2      10       8    60.32627910     0.00496077
      76     dih       6       2      10       7   180.43650753     0.00405529
      77     dih       6       2      10       9   -59.39742086     0.00482649
      78     dih       6       2      10       3   239.33945908     0.00514768
      79     dih       6       2      10      14   -38.08258143    -0.00203347
      80     dih       3       2      10       8   180.98682002    -0.00018691
      81     dih       3       2      10       7   -58.90295155    -0.00109239
      82     dih       3       2      10       9    61.26312006    -0.00032120
      83     dih       3       2      10      14    82.57795949    -0.00718116
      84     dih      11       2      10       8   -57.99296306    -0.00350305
      85     dih      11       2      10       7    62.11726537    -0.00440853
      86     dih      11       2      10       9   182.28333697    -0.00363733
      87     dih      11       2      10       3   121.02021691    -0.00331614
      88     dih      11       2      10      14   203.59817640    -0.01049729
      89     dih       1       3      10       8   248.09637082     0.01331370
      90     dih       1       3      10       7     8.59151161     0.01206205
      91     dih       1       3      10       9   128.37671670     0.01326758
      92     dih       1       3      10       2   246.98173076     0.01344400
      93     dih       1       3      10      14   161.04778232     0.01180366
      94     dih       2       3      10       8     1.11464006    -0.00013030
      95     dih       2       3      10       7   121.60978085    -0.00138195
      96     dih       2       3      10       9   241.39498594    -0.00017642
      97     dih       2       3      10      14   -85.93394844    -0.00164034
      98     dih       4       3      10       8   117.87482254    -0.01767164
      99     dih       4       3      10       7   238.36996333    -0.01892330
     100     dih       4       3      10       9    -1.84483158    -0.01771776
     101     dih       4       3      10       2   116.76018248    -0.01754134
     102     dih       4       3      10      14    30.82623404    -0.01918168
     103     dih       8      10      14      13    51.42612295    -0.00003102
     104     dih       8      10      14       5   229.12022793     0.00107381
     105     dih       7      10      14      13   212.60772556     0.00237576
     106     dih       7      10      14       5    30.30183054     0.00348060
     107     dih       9      10      14      13   -73.71751437     0.00064986
     108     dih       9      10      14       5   103.97659061     0.00175469
     109     dih       2      10      14      13   142.74611835    -0.00862489
     110     dih       2      10      14       5   -39.55977667    -0.00752006
     111     dih       3      10      14      13   168.10525038     0.00563029
     112     dih       3      10      14       5   -14.20064464     0.00673512
     113     dih      12       4      14      10   213.50401881    -0.05093330
Hessian eigenvector     1(     0.001) has overlap with TSRC:    0.39882E-03
Hessian eigenvector     2(     0.001) has overlap with TSRC:    0.11874E-13
Hessian eigenvector     3(     0.004) has overlap with TSRC:    0.13982E+00
Hessian eigenvector     4(     0.005) has overlap with TSRC:    0.38797E+00
Hessian eigenvector     5(     0.006) has overlap with TSRC:    0.12748E+00
Hessian eigenvector     6(     0.007) has overlap with TSRC:    0.30791E+00
Hessian eigenvector     7(     0.011) has overlap with TSRC:    0.72440E-02
Hessian eigenvector     8(     0.012) has overlap with TSRC:    0.28936E-01
Hessian eigenvector     9(     0.018) has overlap with TSRC:    0.15985E-13
Hessian eigenvector    10(     0.021) has overlap with TSRC:    0.23254E-01
Hessian eigenvector    11(     0.025) has overlap with TSRC:    0.72709E-02
Hessian eigenvector    12(     0.027) has overlap with TSRC:    0.17247E+00
Hessian eigenvector    13(     0.029) has overlap with TSRC:    0.11769E-01
Hessian eigenvector    14(     0.039) has overlap with TSRC:    0.15730E-01
Hessian eigenvector    15(     0.045) has overlap with TSRC:    0.68170E-03
Hessian eigenvector    16(     0.052) has overlap with TSRC:    0.34243E-01
Hessian eigenvector    17(     0.053) has overlap with TSRC:    0.22858E-01
Hessian eigenvector    18(     0.055) has overlap with TSRC:    0.12620E-01
Hessian eigenvector    19(     0.072) has overlap with TSRC:    0.32381E-02
Hessian eigenvector    20(     0.084) has overlap with TSRC:    0.57850E-01
Hessian eigenvector    21(     0.090) has overlap with TSRC:    0.82683E-01
Hessian eigenvector    22(     0.098) has overlap with TSRC:    0.95499E-01
Hessian eigenvector    23(     0.121) has overlap with TSRC:    0.98672E-01
Hessian eigenvector    24(     0.144) has overlap with TSRC:    0.20130E-14
Hessian eigenvector    25(     0.144) has overlap with TSRC:    0.40521E-14
Hessian eigenvector    26(     0.158) has overlap with TSRC:    0.17275E-02
Hessian eigenvector    27(     0.188) has overlap with TSRC:    0.74510E-02
Hessian eigenvector    28(     0.229) has overlap with TSRC:    0.76272E-03
Hessian eigenvector    29(     0.234) has overlap with TSRC:    0.35950E-14
Hessian eigenvector    30(     0.234) has overlap with TSRC:    0.53587E-14
Hessian eigenvector    31(     0.234) has overlap with TSRC:    0.47697E-14
Hessian eigenvector    32(     0.477) has overlap with TSRC:    0.76752E-01
Hessian eigenvector    33(     0.491) has overlap with TSRC:    0.22593E-02
Hessian eigenvector    34(     0.500) has overlap with TSRC:    0.19003E-14
Hessian eigenvector    35(     0.503) has overlap with TSRC:    0.53848E-15
Hessian eigenvector    36(     0.503) has overlap with TSRC:    0.14332E-14
Hessian eigenvector    37(     0.503) has overlap with TSRC:    0.11780E-14
Hessian eigenvector    38(     0.503) has overlap with TSRC:    0.90972E-15
Hessian eigenvector    39(     0.509) has overlap with TSRC:    0.26199E-14
Hessian eigenvector    40(     0.509) has overlap with TSRC:    0.14443E-14
Hessian eigenvector    41(     0.540) has overlap with TSRC:    0.19333E-15
Hessian eigenvector    42(     0.540) has overlap with TSRC:    0.13395E-14
Hessian eigenvector    43(     0.540) has overlap with TSRC:    0.10231E-14
Hessian eigenvector    44(     0.540) has overlap with TSRC:    0.32683E-14
Hessian eigenvector    45(     0.568) has overlap with TSRC:    0.12929E-01
Hessian eigenvector     4 has the largest overlap with TSRC:  0.38797
           Primitive Internal Coordinates (atoms in internal order)
-------------------------------------------------------------------------------
    index    type      i       j       k       l   value(A,deg)     Max Ovl Vect
-------------------------------------------------------------------------------
       1     bnd       1       3       0       0     1.08957265    -0.00000000
       2     bnd       2       6       0       0     1.08435865    -0.00000000
       3     bnd       2       3       0       0     1.35638270    -0.01895325
       4     bnd       3       4       0       0     1.46823204    -0.00082527
       5     bnd       4      12       0       0     1.07000000     0.00000000
       6     bnd       4       5       0       0     1.22560214    -0.00036921
       7     bnd       8      10       0       0     1.08374674    -0.00000000
       8     bnd       7      10       0       0     1.08307071     0.00000000
       9     bnd       9      10       0       0     1.08247534    -0.00000000
      10     bnd       2      11       0       0     1.07000000    -0.00000000
      11     bnd      13      15       0       0     2.13097883    -0.00000000
      12     bnd      13      17       0       0     2.13097883    -0.00000000
      13     bnd      13      14       0       0     2.13097883    -0.00000000
      14     bnd      13      16       0       0     2.13097883     0.00000000
      15     bnd       2      10       0       0     2.58285714     0.54867488
      16     bnd       3      10       0       0     3.30547916     0.11283450
      17     bnd       5      14       0       0     3.30000000    -0.00120458
      18     bnd      10      14       0       0     6.18233588     0.01020222
      19     ang       6       2       3       0   120.77103538     0.01042220
      20     ang       6       2      11       0   117.41061259     0.01013051
      21     ang       6       2      10       0    84.09702452     0.01723836
      22     ang       3       2      11       0   120.89733866     0.01266576
      23     ang       3       2      10       0   110.16403203    -0.20244784
      24     ang      11       2      10       0    84.70507552     0.01943522
      25     ang       1       3       2       0   120.21909900     0.00296928
      26     ang       1       3       4       0   115.74474309    -0.00217952
      27     ang       1       3      10       0   110.14017713    -0.04075318
      28     ang       2       3       4       0   124.03410402    -0.00019635
      29     ang       2       3      10       0    47.18020735     0.18204361
      30     ang       4       3      10       0   111.87064539    -0.05833975
      31     ang       3       4      12       0   114.37019830     0.00499762
      32     ang       3       4       5       0   126.33327012    -0.00941151
      33     ang      12       4       5       0   119.29637410     0.00414295
      34     lai       4       5      14      10   177.35939490     0.03608985
      35     ang       8      10       7       0   118.84988012    -0.00185194
      36     ang       8      10       9       0   118.87311123    -0.00138692
      37     ang       8      10       2       0    95.56458342    -0.00844245
      38     ang       8      10       3       0   118.21664669     0.01114161
      39     ang       8      10      14       0    99.98629260     0.05927686
      40     ang       7      10       9       0   118.99448321     0.00245085
      41     ang       7      10       2       0    97.44889075     0.01837317
      42     ang       7      10       3       0    85.54757082    -0.02904155
      43     ang       7      10      14       0   138.87295541    -0.06148710
      44     ang       9      10       2       0    95.11483796    -0.00782379
      45     ang       9      10       3       0    84.13492797     0.02108653
      46     ang       9      10      14       0    37.53046017    -0.01514736
      47     ang       2      10      14       0    63.78081501    -0.03792885
      48     ang       3      10      14       0    63.10523560    -0.01754545
      49     ang      15      13      17       0   109.47122075     0.00000000
      50     ang      15      13      14       0   109.47122057     0.00000000
      51     ang      15      13      16       0   109.47122072    -0.00000000
      52     ang      17      13      14       0   109.47122076    -0.00000000
      53     ang      17      13      16       0   109.47122056     0.00000000
      54     ang      14      13      16       0   109.47122044    -0.00000000
      55     ang      13      14      10       0   141.05297933    -0.00000000
      56     ang       5      14      10       0    40.63572331     0.00704343
      57     lao       4       5      14      10    91.68866753     0.03328888
      58     dih       6       2       3       1   185.43025046    -0.05976263
      59     dih       6       2       3       4     5.97435318    -0.13835131
      60     dih       6       2       3      10    95.22935729    -0.10209288
      61     dih      11       2       3       1    -5.83693566     0.14238109
      62     dih      11       2       3       4   174.70716706     0.06379241
      63     dih      11       2       3      10   263.96217117     0.10005083
      64     dih      10       2       3       1    90.20089317     0.04233026
      65     dih      10       2       3       4   -89.25500411    -0.03625842
      66     dih       1       3       4      12     3.58206089    -0.18129942
      67     dih       1       3       4       5   183.72850675    -0.05532607
      68     dih       2       3       4      12   183.06008625    -0.10588171
      69     dih       2       3       4       5     3.20653211     0.02009164
      70     dih      10       3       4      12   130.84520156    -0.29387565
      71     dih      10       3       4       5   -49.00835258    -0.16790230
      72     dih      15      13      14      10    53.29899455    -0.00000000
      73     dih      17      13      14      10   173.29899473    -0.00000000
      74     dih      16      13      14      10   -66.70100540    -0.00000000
      75     dih       6       2      10       8    60.32627910     0.11126029
      76     dih       6       2      10       7   180.43650753     0.11106963
      77     dih       6       2      10       9   -59.39742086     0.11528838
      78     dih       6       2      10       3   239.33945908     0.00228713
      79     dih       6       2      10      14   -38.08258143     0.04206033
      80     dih       3       2      10       8   180.98682002     0.10897316
      81     dih       3       2      10       7   -58.90295155     0.10878250
      82     dih       3       2      10       9    61.26312006     0.11300125
      83     dih       3       2      10      14    82.57795949     0.03977320
      84     dih      11       2      10       8   -57.99296306     0.10697456
      85     dih      11       2      10       7    62.11726537     0.10678389
      86     dih      11       2      10       9   182.28333697     0.11100265
      87     dih      11       2      10       3   121.02021691    -0.00199860
      88     dih      11       2      10      14   203.59817640     0.03777460
      89     dih       1       3      10       8   248.09637082     0.08362439
      90     dih       1       3      10       7     8.59151161     0.06724291
      91     dih       1       3      10       9   128.37671670     0.07133343
      92     dih       1       3      10       2   246.98173076    -0.03959944
      93     dih       1       3      10      14   161.04778232     0.02509166
      94     dih       2       3      10       8     1.11464006     0.12322383
      95     dih       2       3      10       7   121.60978085     0.10684235
      96     dih       2       3      10       9   241.39498594     0.11093287
      97     dih       2       3      10      14   -85.93394844     0.06469110
      98     dih       4       3      10       8   117.87482254     0.16846523
      99     dih       4       3      10       7   238.36996333     0.15208375
     100     dih       4       3      10       9    -1.84483158     0.15617427
     101     dih       4       3      10       2   116.76018248     0.04524140
     102     dih       4       3      10      14    30.82623404     0.10993250
     103     dih       8      10      14      13    51.42612295    -0.00113160
     104     dih       8      10      14       5   229.12022793    -0.04934479
     105     dih       7      10      14      13   212.60772556    -0.00800883
     106     dih       7      10      14       5    30.30183054    -0.05622202
     107     dih       9      10      14      13   -73.71751437     0.07774569
     108     dih       9      10      14       5   103.97659061     0.02953250
     109     dih       2      10      14      13   142.74611835    -0.04585420
     110     dih       2      10      14       5   -39.55977667    -0.09406739
     111     dih       3      10      14      13   168.10525038    -0.01601154
     112     dih       3      10      14       5   -14.20064464    -0.06422473
     113     dih      12       4      14      10   213.50401881     0.25453347
 
----------------------------------------------------------------------
Geometry Convergence after Step   1       (Hartree/Angstrom,Angstrom)
----------------------------------------------------------------------
current energy                               -3.09032111 Hartree
energy change                      -3.09032111     0.00017000    F
constrained gradient max            0.03898680     0.00100000    F
constrained gradient rms            0.01516303     0.00066667    F
gradient max                        0.03898680
gradient rms                        0.01516303
cart. step max                      0.07405165     0.01000000    F
cart. step rms                      0.01967803     0.00666667    F
 
 
--------
Geometry
--------
Formula: C4H7Cl4OTi
Atoms
  Index Symbol   x (angstrom)   y (angstrom)   z (angstrom)
      1      H     0.18697780    -1.86714481    -0.23640560
      2      C    -0.92072565    -0.13580745     0.30180819
      3      C     0.20892179    -0.79115750    -0.06407393
      4      C     1.51521008    -0.13920158    -0.23898539
      5      O     1.75871836     1.04241380    -0.02090727
      6      H    -0.92654497     0.94638659     0.38100362
      7      H    -1.18702725    -1.13990407     3.01659583
      8      H    -2.08731033     0.48672673     2.86083591
      9      H    -0.22861184     0.46059727     3.02345819
     10      C    -1.15720978    -0.06954762     2.85412459
     11      H    -1.87491390    -0.64295518     0.32424747
     12      H     2.30454329    -0.79514078    -0.63329903
     13     Ti     3.04834994     6.30228530     0.61908369
     14     Cl     2.51400700     4.23686793     0.37150464
     15     Cl     3.62575036     6.65490650     2.66233683
     16     Cl     1.35969359     7.54332565     0.12783573
     17     Cl     4.69265950     6.78124227    -0.68417970
 
Total System Charge             0.00000
 
 *** GOStep2 ***

 Energy gradients wrt nuclear displacements
 ==========================================

     Atom      Cartesian (a.u./angstrom)
                 X         Y         Z
 ----------------------------------------
     1 H     0.000335  0.000219  0.000224
     2 C    -0.003164 -0.003322  0.002208
     3 C    -0.000676  0.002201 -0.003572
     4 C     0.011570 -0.017494  0.000611
     5 O     0.002341  0.008144 -0.001736
     6 H    -0.000847 -0.000418 -0.000093
     7 H     0.000061 -0.000084 -0.000309
     8 H    -0.000001  0.000137 -0.000259
     9 H    -0.000020  0.000002 -0.000002
    10 C    -0.000643  0.000214 -0.000311
    11 H     0.004477  0.002563  0.000017
    12 H    -0.012556  0.011488  0.003566
    13 Ti    0.001166  0.005841  0.000897
    14 Cl    0.003803  0.014640  0.001765
    15 Cl   -0.006674 -0.004109 -0.023704
    16 Cl    0.019672 -0.014454  0.005745
    17 Cl   -0.018845 -0.005570  0.014954
 ----------------------------------------
 Mulliken charges used for AMS results%charges...
Hessian eigenvector     1(     0.001) has overlap with TSRC:    0.18209E-01
Hessian eigenvector     2(     0.001) has overlap with TSRC:    0.33668E-01
Hessian eigenvector     3(     0.004) has overlap with TSRC:    0.93171E-01
Hessian eigenvector     4(     0.005) has overlap with TSRC:    0.24458E+00
Hessian eigenvector     5(     0.007) has overlap with TSRC:    0.43926E+00
Hessian eigenvector     6(     0.011) has overlap with TSRC:    0.36268E-01
Hessian eigenvector     7(     0.012) has overlap with TSRC:    0.36045E-01
Hessian eigenvector     8(     0.017) has overlap with TSRC:    0.89360E-02
Hessian eigenvector     9(     0.020) has overlap with TSRC:    0.66698E-01
Hessian eigenvector    10(     0.025) has overlap with TSRC:    0.33574E-02
Hessian eigenvector    11(     0.026) has overlap with TSRC:    0.19719E+00
Hessian eigenvector    12(     0.029) has overlap with TSRC:    0.13466E-01
Hessian eigenvector    13(     0.031) has overlap with TSRC:    0.41735E-01
Hessian eigenvector    14(     0.039) has overlap with TSRC:    0.71788E-02
Hessian eigenvector    15(     0.045) has overlap with TSRC:    0.30486E-02
Hessian eigenvector    16(     0.052) has overlap with TSRC:    0.39808E-01
Hessian eigenvector    17(     0.053) has overlap with TSRC:    0.21092E-01
Hessian eigenvector    18(     0.055) has overlap with TSRC:    0.11037E-01
Hessian eigenvector    19(     0.072) has overlap with TSRC:    0.58715E-02
Hessian eigenvector    20(     0.084) has overlap with TSRC:    0.62188E-01
Hessian eigenvector    21(     0.089) has overlap with TSRC:    0.81479E-01
Hessian eigenvector    22(     0.098) has overlap with TSRC:    0.94051E-01
Hessian eigenvector    23(     0.121) has overlap with TSRC:    0.98639E-01
Hessian eigenvector    24(     0.144) has overlap with TSRC:    0.35288E-03
Hessian eigenvector    25(     0.144) has overlap with TSRC:    0.42520E-04
Hessian eigenvector    26(     0.159) has overlap with TSRC:    0.81132E-03
Hessian eigenvector    27(     0.186) has overlap with TSRC:    0.41029E-03
Hessian eigenvector    28(     0.229) has overlap with TSRC:    0.45857E-02
Hessian eigenvector    29(     0.234) has overlap with TSRC:    0.40668E-03
Hessian eigenvector    30(     0.234) has overlap with TSRC:    0.50671E-08
Hessian eigenvector    31(     0.234) has overlap with TSRC:    0.10594E-03
Hessian eigenvector    32(     0.399) has overlap with TSRC:    0.26738E-01
Hessian eigenvector    33(     0.477) has overlap with TSRC:    0.79078E-01
Hessian eigenvector    34(     0.491) has overlap with TSRC:    0.26681E-02
Hessian eigenvector    35(     0.500) has overlap with TSRC:    0.38648E-04
Hessian eigenvector    36(     0.503) has overlap with TSRC:    0.74543E-04
Hessian eigenvector    37(     0.503) has overlap with TSRC:    0.11320E-04
Hessian eigenvector    38(     0.503) has overlap with TSRC:    0.28784E-05
Hessian eigenvector    39(     0.503) has overlap with TSRC:    0.18441E-04
Hessian eigenvector    40(     0.509) has overlap with TSRC:    0.16768E-03
Hessian eigenvector    41(     0.519) has overlap with TSRC:    0.58090E-02
Hessian eigenvector    42(     0.540) has overlap with TSRC:    0.27128E-08
Hessian eigenvector    43(     0.540) has overlap with TSRC:    0.55492E-08
Hessian eigenvector    44(     0.540) has overlap with TSRC:    0.10453E-03
Hessian eigenvector    45(     0.568) has overlap with TSRC:    0.14090E-01
Hessian eigenvector     5 has the largest overlap with TSRC:  0.43926
           Primitive Internal Coordinates (atoms in internal order)
-------------------------------------------------------------------------------
    index    type      i       j       k       l   value(A,deg)     Max Ovl Vect
-------------------------------------------------------------------------------
       1     bnd       1       3       0       0     1.08992130     0.00009709
       2     bnd       2       6       0       0     1.08510355     0.00015361
       3     bnd       2       3       0       0     1.35626574     0.02211472
       4     bnd       3       4       0       0     1.47038418    -0.00026204
       5     bnd       4      12       0       0     1.09944823     0.00620725
       6     bnd       4       5       0       0     1.22599724    -0.00148468
       7     bnd       8      10       0       0     1.08377730    -0.00002534
       8     bnd       7      10       0       0     1.08302766    -0.00001314
       9     bnd       9      10       0       0     1.08259947    -0.00000070
      10     bnd       2      11       0       0     1.08082263     0.00182372
      11     bnd      13      15       0       0     2.15235136     0.00894272
      12     bnd      13      17       0       0     2.15212666     0.00883561
      13     bnd      13      14       0       0     2.14773524     0.00679335
      14     bnd      13      16       0       0     2.15245581     0.00897311
      15     bnd       2      10       0       0     2.56410493    -0.62219673
      16     bnd       3      10       0       0     3.30195682    -0.13704766
      17     bnd       5      14       0       0     3.30590158     0.00340832
      18     bnd      10      14       0       0     6.17951854     0.00545138
      19     ang       6       2       3       0   120.40188133    -0.01842513
      20     ang       6       2      11       0   117.49788522    -0.01191938
      21     ang       6       2      10       0    84.32328781    -0.01579415
      22     ang       3       2      11       0   120.94355307    -0.00829873
      23     ang       3       2      10       0   110.96737065     0.22451414
      24     ang      11       2      10       0    84.83850713    -0.01568135
      25     ang       1       3       2       0   120.19268287     0.00504122
      26     ang       1       3       4       0   115.89995319     0.01644855
      27     ang       1       3      10       0   110.31333190     0.02268874
      28     ang       2       3       4       0   123.90380343    -0.02228127
      29     ang       2       3      10       0    46.47898646    -0.20286047
      30     ang       4       3      10       0   112.07334190     0.06708345
      31     ang       3       4      12       0   114.57891462     0.00651853
      32     ang       3       4       5       0   125.63609965    -0.01354466
      33     ang      12       4       5       0   119.74948414     0.00680475
      34     lai       4       5      14      10   176.32309784     0.02592645
      35     ang       8      10       7       0   118.86266472    -0.00137770
      36     ang       8      10       9       0   118.93421842     0.00490785
      37     ang       8      10       2       0    95.65732947     0.01384792
      38     ang       8      10       3       0   118.21043384    -0.00797850
      39     ang       8      10      14       0    98.89639863    -0.07579465
      40     ang       7      10       9       0   118.95467083     0.00367449
      41     ang       7      10       2       0    97.25735523    -0.01890066
      42     ang       7      10       3       0    85.87045833    -0.01352322
      43     ang       7      10      14       0   139.93876538     0.04665196
      44     ang       9      10       2       0    95.11989383    -0.01489848
      45     ang       9      10       3       0    83.70623686     0.00270865
      46     ang       9      10      14       0    38.00041487     0.09425014
      47     ang       2      10      14       0    64.10732280    -0.06806365
      48     ang       3      10      14       0    63.34883425    -0.01827779
      49     ang      15      13      17       0   109.47827055    -0.00000264
      50     ang      15      13      14       0   109.49505456    -0.00003174
      51     ang      15      13      16       0   109.43026368    -0.00005396
      52     ang      17      13      14       0   109.53010401     0.00021783
      53     ang      17      13      16       0   109.44399070    -0.00006385
      54     ang      14      13      16       0   109.44957911    -0.00006564
      55     ang      13      14      10       0   140.50415009    -0.00199925
      56     ang       5      14      10       0    40.40912590     0.00758847
      57     lao       4       5      14      10    90.96333137     0.09689968
      58     dih       6       2       3       1   185.93276143     0.02587706
      59     dih       6       2       3       4     6.64803508     0.13062089
      60     dih       6       2       3      10    95.85597057     0.11442978
      61     dih      11       2       3       1    -6.66601069    -0.20929464
      62     dih      11       2       3       4   174.04926296    -0.10455081
      63     dih      11       2       3      10   263.25719845    -0.12074192
      64     dih      10       2       3       1    90.07679086    -0.08855272
      65     dih      10       2       3       4   -89.20793549     0.01619111
      66     dih       1       3       4      12     6.41996299    -0.17391808
      67     dih       1       3       4       5   184.23396522    -0.07099729
      68     dih       2       3       4      12   185.73269479    -0.27444736
      69     dih       2       3       4       5     3.54669702    -0.17152656
      70     dih      10       3       4      12   134.25187924    -0.06643532
      71     dih      10       3       4       5   -47.93411853     0.03648548
      72     dih      15      13      14      10    52.45450675    -0.01180170
      73     dih      17      13      14      10   172.51388456    -0.01169097
      74     dih      16      13      14      10   -67.49667316    -0.01167598
      75     dih       6       2      10       8    59.18983024     0.02714341
      76     dih       6       2      10       7   179.29620650     0.02504356
      77     dih       6       2      10       9   -60.61164770     0.02238640
      78     dih       6       2      10       3   239.56728583     0.00359450
      79     dih       6       2      10      14   -37.97133567     0.12009603
      80     dih       3       2      10       8   179.62254441     0.02354890
      81     dih       3       2      10       7   -60.27107933     0.02144906
      82     dih       3       2      10       9    59.82106647     0.01879190
      83     dih       3       2      10      14    82.46137850     0.11650153
      84     dih      11       2      10       8   -59.16037002     0.03411133
      85     dih      11       2      10       7    60.94600623     0.03201148
      86     dih      11       2      10       9   181.03815204     0.02935432
      87     dih      11       2      10       3   121.21708557     0.01056242
      88     dih      11       2      10      14   203.67846406     0.12706395
      89     dih       1       3      10       8   246.74341330     0.03989529
      90     dih       1       3      10       7     7.43884948     0.02870010
      91     dih       1       3      10       9   127.19328616     0.03423506
      92     dih       1       3      10       2   247.16966210     0.01340498
      93     dih       1       3      10      14   160.92211777     0.14103385
      94     dih       2       3      10       8    -0.42624880     0.02649031
      95     dih       2       3      10       7   120.26918738     0.01529512
      96     dih       2       3      10       9   240.02362406     0.02083008
      97     dih       2       3      10      14   -86.24754433     0.12762886
      98     dih       4       3      10       8   115.99645480    -0.05633356
      99     dih       4       3      10       7   236.69189098    -0.06752875
     100     dih       4       3      10       9    -3.55367234    -0.06199379
     101     dih       4       3      10       2   116.42270360    -0.08282387
     102     dih       4       3      10      14    30.17515927     0.04480500
     103     dih       8      10      14      13    50.44750030     0.00616151
     104     dih       8      10      14       5   229.21053095    -0.07947578
     105     dih       7      10      14      13   211.40674225    -0.12562995
     106     dih       7      10      14       5    30.16977289    -0.21126724
     107     dih       9      10      14      13   -76.06822043    -0.04779330
     108     dih       9      10      14       5   102.69481022    -0.13343059
     109     dih       2      10      14      13   142.44927037     0.04757942
     110     dih       2      10      14       5   -38.78769898    -0.03805787
     111     dih       3      10      14      13   167.62738999     0.03457866
     112     dih       3      10      14       5   -13.60957936    -0.05105863
     113     dih      12       4      14      10   210.38912862     0.02175268
 
----------------------------------------------------------------------
Geometry Convergence after Step   2       (Hartree/Angstrom,Angstrom)
----------------------------------------------------------------------
current energy                               -3.09402872 Hartree
energy change                      -0.00370762     0.00017000    F
constrained gradient max            0.02372461     0.00100000    F
constrained gradient rms            0.00769534     0.00066667    F
gradient max                        0.02372461
gradient rms                        0.00769534
cart. step max                      0.05766248     0.01000000    F
cart. step rms                      0.02347723     0.00666667    F
 
 
--------
Geometry
--------
Formula: C4H7Cl4OTi
Atoms
  Index Symbol   x (angstrom)   y (angstrom)   z (angstrom)
      1      H     0.18609515    -1.88162823    -0.22271312
      2      C    -0.93689819    -0.15321710     0.29404256
      3      C     0.19761507    -0.80307757    -0.06498892
      4      C     1.49060423    -0.13347575    -0.27394729
      5      O     1.73255862     1.04181774    -0.03172411
      6      H    -0.95103233     0.93026519     0.35642164
      7      H    -1.17913909    -1.12836422     3.03855703
      8      H    -2.05699733     0.51026324     2.88275548
      9      H    -0.19684920     0.45687871     3.02044992
     10      C    -1.13556489    -0.05999417     2.86654346
     11      H    -1.88841514    -0.67112853     0.33353277
     12      H     2.29125428    -0.79275159    -0.66974768
     13     Ti     3.05624954     6.30932920     0.62672188
     14     Cl     2.54473844     4.22738738     0.37438141
     15     Cl     3.56808788     6.68206396     2.69884042
     16     Cl     1.36216163     7.54056585     0.07050488
     17     Cl     4.74801930     6.79895892    -0.63464658
 
Total System Charge             0.00000
 
 *** GOStep3 ***

 Energy gradients wrt nuclear displacements
 ==========================================

     Atom      Cartesian (a.u./angstrom)
                 X         Y         Z
 ----------------------------------------
     1 H     0.000062 -0.000121  0.000268
     2 C    -0.001157 -0.000881  0.002476
     3 C     0.001461  0.000711  0.001377
     4 C     0.001390 -0.004770 -0.006902
     5 O     0.002541  0.004442  0.002171
     6 H    -0.000347 -0.000134 -0.000126
     7 H     0.000112  0.000070 -0.000037
     8 H     0.000064  0.000082 -0.000066
     9 H    -0.000047 -0.000130  0.000398
    10 C    -0.000336  0.000043 -0.001581
    11 H     0.000793  0.000609 -0.000766
    12 H    -0.003617  0.003594  0.003164
    13 Ti    0.000824  0.003900  0.000633
    14 Cl    0.001582  0.006867  0.000841
    15 Cl   -0.003499 -0.002516 -0.014161
    16 Cl    0.011612 -0.008433  0.003815
    17 Cl   -0.011438 -0.003332  0.008495
 ----------------------------------------
 Mulliken charges used for AMS results%charges...
Hessian eigenvector     1(     0.000) has overlap with TSRC:    0.29821E+00
Hessian eigenvector     2(     0.001) has overlap with TSRC:    0.54373E-01
Hessian eigenvector     3(     0.002) has overlap with TSRC:    0.31813E+00
Hessian eigenvector     4(     0.005) has overlap with TSRC:    0.11585E+00
Hessian eigenvector     5(     0.009) has overlap with TSRC:    0.17570E+00
Hessian eigenvector     6(     0.011) has overlap with TSRC:    0.49191E-01
Hessian eigenvector     7(     0.017) has overlap with TSRC:    0.49637E-01
Hessian eigenvector     8(     0.017) has overlap with TSRC:    0.68158E-02
Hessian eigenvector     9(     0.022) has overlap with TSRC:    0.20899E+00
Hessian eigenvector    10(     0.025) has overlap with TSRC:    0.67029E-01
Hessian eigenvector    11(     0.027) has overlap with TSRC:    0.13283E+00
Hessian eigenvector    12(     0.029) has overlap with TSRC:    0.24867E-01
Hessian eigenvector    13(     0.031) has overlap with TSRC:    0.59675E-01
Hessian eigenvector    14(     0.039) has overlap with TSRC:    0.43564E-02
Hessian eigenvector    15(     0.045) has overlap with TSRC:    0.43914E-02
Hessian eigenvector    16(     0.052) has overlap with TSRC:    0.40174E-01
Hessian eigenvector    17(     0.053) has overlap with TSRC:    0.17557E-01
Hessian eigenvector    18(     0.055) has overlap with TSRC:    0.84233E-02
Hessian eigenvector    19(     0.072) has overlap with TSRC:    0.52981E-02
Hessian eigenvector    20(     0.084) has overlap with TSRC:    0.61784E-01
Hessian eigenvector    21(     0.089) has overlap with TSRC:    0.81281E-01
Hessian eigenvector    22(     0.098) has overlap with TSRC:    0.93639E-01
Hessian eigenvector    23(     0.121) has overlap with TSRC:    0.97703E-01
Hessian eigenvector    24(     0.144) has overlap with TSRC:    0.31944E-03
Hessian eigenvector    25(     0.144) has overlap with TSRC:    0.15762E-03
Hessian eigenvector    26(     0.159) has overlap with TSRC:    0.46647E-03
Hessian eigenvector    27(     0.186) has overlap with TSRC:    0.26440E-02
Hessian eigenvector    28(     0.229) has overlap with TSRC:    0.23851E-02
Hessian eigenvector    29(     0.234) has overlap with TSRC:    0.40193E-03
Hessian eigenvector    30(     0.234) has overlap with TSRC:    0.25577E-04
Hessian eigenvector    31(     0.234) has overlap with TSRC:    0.27519E-04
Hessian eigenvector    32(     0.398) has overlap with TSRC:    0.24265E-01
Hessian eigenvector    33(     0.477) has overlap with TSRC:    0.76318E-01
Hessian eigenvector    34(     0.491) has overlap with TSRC:    0.26431E-02
Hessian eigenvector    35(     0.500) has overlap with TSRC:    0.35674E-04
Hessian eigenvector    36(     0.503) has overlap with TSRC:    0.53626E-04
Hessian eigenvector    37(     0.503) has overlap with TSRC:    0.32098E-04
Hessian eigenvector    38(     0.503) has overlap with TSRC:    0.33520E-04
Hessian eigenvector    39(     0.503) has overlap with TSRC:    0.33976E-04
Hessian eigenvector    40(     0.509) has overlap with TSRC:    0.78052E-04
Hessian eigenvector    41(     0.520) has overlap with TSRC:    0.38537E-02
Hessian eigenvector    42(     0.540) has overlap with TSRC:    0.27845E-06
Hessian eigenvector    43(     0.540) has overlap with TSRC:    0.37003E-05
Hessian eigenvector    44(     0.540) has overlap with TSRC:    0.36739E-04
Hessian eigenvector    45(     0.568) has overlap with TSRC:    0.13716E-01
Hessian eigenvector     3 has the largest overlap with TSRC:  0.31813
           Primitive Internal Coordinates (atoms in internal order)
-------------------------------------------------------------------------------
    index    type      i       j       k       l   value(A,deg)     Max Ovl Vect
-------------------------------------------------------------------------------
       1     bnd       1       3       0       0     1.09008309     0.00021442
       2     bnd       2       6       0       0     1.08536851    -0.00008645
       3     bnd       2       3       0       0     1.35585492     0.01644740
       4     bnd       3       4       0       0     1.47100346    -0.00092409
       5     bnd       4      12       0       0     1.11010949    -0.00404854
       6     bnd       4       5       0       0     1.22414411     0.00095788
       7     bnd       8      10       0       0     1.08374079    -0.00005275
       8     bnd       7      10       0       0     1.08300598    -0.00013840
       9     bnd       9      10       0       0     1.08260423    -0.00005722
      10     bnd       2      11       0       0     1.08405546     0.00003680
      11     bnd      13      15       0       0     2.16669908    -0.01538915
      12     bnd      13      17       0       0     2.16630390    -0.01519466
      13     bnd      13      14       0       0     2.15865724    -0.01091248
      14     bnd      13      16       0       0     2.16685368    -0.01541922
      15     bnd       2      10       0       0     2.58184427    -0.45006622
      16     bnd       3      10       0       0     3.30506034    -0.09734315
      17     bnd       5      14       0       0     3.31246308    -0.01308890
      18     bnd      10      14       0       0     6.17552790     0.00699042
      19     ang       6       2       3       0   120.30359651    -0.01221143
      20     ang       6       2      11       0   117.60668601    -0.00941907
      21     ang       6       2      10       0    84.58832709    -0.01168349
      22     ang       3       2      11       0   121.00465722    -0.00687887
      23     ang       3       2      10       0   110.21443526     0.16319169
      24     ang      11       2      10       0    85.03277135    -0.00918689
      25     ang       1       3       2       0   120.24509588    -0.00106674
      26     ang       1       3       4       0   116.04778159     0.00980805
      27     ang       1       3      10       0   110.27511210     0.01787186
      28     ang       2       3       4       0   123.70584171    -0.00921089
      29     ang       2       3      10       0    47.14381249    -0.14736128
      30     ang       4       3      10       0   112.22311771     0.05792408
      31     ang       3       4      12       0   114.47307719     0.00674842
      32     ang       3       4       5       0   125.63788542    -0.01025066
      33     ang      12       4       5       0   119.87966701     0.00340003
      34     lai       4       5      14      10   174.94761355     0.02753752
      35     ang       8      10       7       0   118.84866443    -0.00202393
      36     ang       8      10       9       0   118.93907254     0.00098987
      37     ang       8      10       2       0    95.70046967     0.00599741
      38     ang       8      10       3       0   118.32920665    -0.01069332
      39     ang       8      10      14       0    98.47752014     0.02693792
      40     ang       7      10       9       0   118.90048687     0.00266120
      41     ang       7      10       2       0    97.22301625     0.00325847
      42     ang       7      10       3       0    86.29124989    -0.02634453
      43     ang       7      10      14       0   140.61912353    -0.03978934
      44     ang       9      10       2       0    95.28828407    -0.01378429
      45     ang       9      10       3       0    83.32000537     0.03366756
      46     ang       9      10      14       0    37.73664235     0.02148207
      47     ang       2      10      14       0    64.98323180    -0.05837791
      48     ang       3      10      14       0    63.75266545    -0.01946611
      49     ang      15      13      17       0   109.48046681     0.00018070
      50     ang      15      13      14       0   109.49264631     0.00055704
      51     ang      15      13      16       0   109.41620112    -0.00004554
      52     ang      17      13      14       0   109.57100663    -0.00037148
      53     ang      17      13      16       0   109.43075768    -0.00024139
      54     ang      14      13      16       0   109.43611212    -0.00007934
      55     ang      13      14      10       0   139.78450654     0.02524722
      56     ang       5      14      10       0    40.15498283     0.00994267
      57     lao       4       5      14      10    90.72030278     0.08641708
      58     dih       6       2       3       1   186.02526628     0.02552895
      59     dih       6       2       3       4     5.59691559     0.08767237
      60     dih       6       2       3      10    95.66957554     0.08342332
      61     dih      11       2       3       1    -6.16931008    -0.14804012
      62     dih      11       2       3       4   173.40233923    -0.08589670
      63     dih      11       2       3      10   263.47499918    -0.09014575
      64     dih      10       2       3       1    90.35569074    -0.05789437
      65     dih      10       2       3       4   -90.07265995     0.00424905
      66     dih       1       3       4      12     5.83070536    -0.10958445
      67     dih       1       3       4       5   186.95260141    -0.06206876
      68     dih       2       3       4      12   186.24258330    -0.16924918
      69     dih       2       3       4       5     7.36447936    -0.12173349
      70     dih      10       3       4      12   133.88052665    -0.02303178
      71     dih      10       3       4       5   -44.99757730     0.02448391
      72     dih      15      13      14      10    51.30276311    -0.19760288
      73     dih      17      13      14      10   171.38849466    -0.19726793
      74     dih      16      13      14      10   -68.62148903    -0.19783964
      75     dih       6       2      10       8    57.80235366     0.11661474
      76     dih       6       2      10       7   177.89671809     0.11639760
      77     dih       6       2      10       9   -62.03914512     0.11690696
      78     dih       6       2      10       3   239.65363346     0.00142348
      79     dih       6       2      10      14   -38.91139585     0.09097809
      80     dih       3       2      10       8   178.14872020     0.11519126
      81     dih       3       2      10       7   -61.75691537     0.11497412
      82     dih       3       2      10       9    58.30722141     0.11548348
      83     dih       3       2      10      14    81.43497069     0.08955461
      84     dih      11       2      10       8   -60.58710765     0.12278590
      85     dih      11       2      10       7    59.50725678     0.12256877
      86     dih      11       2      10       9   179.57139357     0.12307812
      87     dih      11       2      10       3   121.26417215     0.00759465
      88     dih      11       2      10      14   202.69914284     0.09714925
      89     dih       1       3      10       8   244.96849458     0.14735996
      90     dih       1       3      10       7     5.92262764     0.12740851
      91     dih       1       3      10       9   125.60596541     0.12940491
      92     dih       1       3      10       2   247.06135920     0.01736775
      93     dih       1       3      10      14   159.50485786     0.11879713
      94     dih       2       3      10       8    -2.09286463     0.12999221
      95     dih       2       3      10       7   118.86126843     0.11004076
      96     dih       2       3      10       9   238.54460621     0.11203715
      97     dih       2       3      10      14   -87.55650135     0.10142938
      98     dih       4       3      10       8   113.92590735     0.07165690
      99     dih       4       3      10       7   234.88004041     0.05170545
     100     dih       4       3      10       9    -5.43662182     0.05370185
     101     dih       4       3      10       2   116.01877198    -0.05833531
     102     dih       4       3      10      14    28.46227063     0.04309407
     103     dih       8      10      14      13    48.83560698    -0.17941277
     104     dih       8      10      14       5   229.75334995    -0.02296610
     105     dih       7      10      14      13   210.72375139    -0.23377355
     106     dih       7      10      14       5    31.64149436    -0.07732687
     107     dih       9      10      14      13   -78.51929303    -0.12657337
     108     dih       9      10      14       5   102.39844994     0.02987330
     109     dih       2      10      14      13   141.20063576    -0.19543487
     110     dih       2      10      14       5   -37.88162127    -0.03898820
     111     dih       3      10      14      13   166.31566127    -0.20320140
     112     dih       3      10      14       5   -12.76659576    -0.04675472
     113     dih      12       4      14      10   211.80031528    -0.01906234
 
----------------------------------------------------------------------
Geometry Convergence after Step   3       (Hartree/Angstrom,Angstrom)
----------------------------------------------------------------------
current energy                               -3.09527084 Hartree
energy change                      -0.00124211     0.00017000    F
constrained gradient max            0.01417221     0.00100000    F
constrained gradient rms            0.00414693     0.00066667    F
gradient max                        0.01417221
gradient rms                        0.00414693
cart. step max                      0.10645732     0.01000000    F
cart. step rms                      0.02988225     0.00666667    F
 
 
--------
Geometry
--------
Formula: C4H7Cl4OTi
Atoms
  Index Symbol   x (angstrom)   y (angstrom)   z (angstrom)
      1      H     0.15786329    -1.86963974    -0.24778932
      2      C    -0.94256727    -0.13771519     0.30514356
      3      C     0.18126148    -0.79338448    -0.07631280
      4      C     1.47778009    -0.13229808    -0.29058720
      5      O     1.73062226     1.03869380    -0.03989249
      6      H    -0.94549528     0.94500518     0.38115051
      7      H    -1.15666790    -1.14458826     3.03975558
      8      H    -2.02979564     0.49896342     2.91263598
      9      H    -0.16840010     0.43710660     3.02739492
     10      C    -1.11085852    -0.07455147     2.87901332
     11      H    -1.89865971    -0.64714158     0.34936360
     12      H     2.26901238    -0.79370403    -0.70378145
     13     Ti     3.05410637     6.30700058     0.62535461
     14     Cl     2.56666254     4.21622118     0.38813828
     15     Cl     3.46310473     6.72203993     2.71400467
     16     Cl     1.38083722     7.51759150    -0.03595244
     17     Cl     4.80368202     6.78429367    -0.56265555
 
Total System Charge             0.00000
 
 *** GOStep4 ***

 Energy gradients wrt nuclear displacements
 ==========================================

     Atom      Cartesian (a.u./angstrom)
                 X         Y         Z
 ----------------------------------------
     1 H     0.000024 -0.000140  0.000229
     2 C    -0.000732 -0.000813  0.002473
     3 C     0.001287  0.000774  0.001000
     4 C     0.001202 -0.003981 -0.005644
     5 O     0.002186  0.004055  0.001801
     6 H    -0.000330 -0.000088 -0.000161
     7 H     0.000088  0.000058 -0.000038
     8 H     0.000064  0.000076 -0.000079
     9 H    -0.000044 -0.000104  0.000360
    10 C    -0.000363  0.000049 -0.001471
    11 H     0.000585  0.000494 -0.000678
    12 H    -0.003043  0.003096  0.002647
    13 Ti    0.000727  0.003685  0.000639
    14 Cl    0.001240  0.006023  0.000644
    15 Cl   -0.002574 -0.002606 -0.013150
    16 Cl    0.010576 -0.007635  0.004084
    17 Cl   -0.010892 -0.002943  0.007345
 ----------------------------------------
 Mulliken charges used for AMS results%charges...
Hessian eigenvector     1(     0.000) has overlap with TSRC:    0.21620E+00
Hessian eigenvector     2(     0.001) has overlap with TSRC:    0.96445E-01
Hessian eigenvector     3(     0.002) has overlap with TSRC:    0.37295E+00
Hessian eigenvector     4(     0.005) has overlap with TSRC:    0.11631E+00
Hessian eigenvector     5(     0.009) has overlap with TSRC:    0.17358E+00
Hessian eigenvector     6(     0.011) has overlap with TSRC:    0.48218E-01
Hessian eigenvector     7(     0.017) has overlap with TSRC:    0.49402E-01
Hessian eigenvector     8(     0.017) has overlap with TSRC:    0.53456E-02
Hessian eigenvector     9(     0.022) has overlap with TSRC:    0.20517E+00
Hessian eigenvector    10(     0.025) has overlap with TSRC:    0.63605E-01
Hessian eigenvector    11(     0.027) has overlap with TSRC:    0.13488E+00
Hessian eigenvector    12(     0.029) has overlap with TSRC:    0.24396E-01
Hessian eigenvector    13(     0.032) has overlap with TSRC:    0.61515E-01
Hessian eigenvector    14(     0.039) has overlap with TSRC:    0.41711E-02
Hessian eigenvector    15(     0.045) has overlap with TSRC:    0.44377E-02
Hessian eigenvector    16(     0.052) has overlap with TSRC:    0.40122E-01
Hessian eigenvector    17(     0.053) has overlap with TSRC:    0.17611E-01
Hessian eigenvector    18(     0.055) has overlap with TSRC:    0.83857E-02
Hessian eigenvector    19(     0.072) has overlap with TSRC:    0.53288E-02
Hessian eigenvector    20(     0.084) has overlap with TSRC:    0.61548E-01
Hessian eigenvector    21(     0.089) has overlap with TSRC:    0.81272E-01
Hessian eigenvector    22(     0.098) has overlap with TSRC:    0.93555E-01
Hessian eigenvector    23(     0.121) has overlap with TSRC:    0.97736E-01
Hessian eigenvector    24(     0.144) has overlap with TSRC:    0.28957E-03
Hessian eigenvector    25(     0.144) has overlap with TSRC:    0.27051E-03
Hessian eigenvector    26(     0.159) has overlap with TSRC:    0.70400E-03
Hessian eigenvector    27(     0.186) has overlap with TSRC:    0.22490E-02
Hessian eigenvector    28(     0.229) has overlap with TSRC:    0.25783E-02
Hessian eigenvector    29(     0.234) has overlap with TSRC:    0.20425E-03
Hessian eigenvector    30(     0.234) has overlap with TSRC:    0.20313E-03
Hessian eigenvector    31(     0.234) has overlap with TSRC:    0.87702E-04
Hessian eigenvector    32(     0.397) has overlap with TSRC:    0.24477E-01
Hessian eigenvector    33(     0.477) has overlap with TSRC:    0.76507E-01
Hessian eigenvector    34(     0.491) has overlap with TSRC:    0.25830E-02
Hessian eigenvector    35(     0.500) has overlap with TSRC:    0.23205E-04
Hessian eigenvector    36(     0.503) has overlap with TSRC:    0.64722E-04
Hessian eigenvector    37(     0.503) has overlap with TSRC:    0.27478E-04
Hessian eigenvector    38(     0.503) has overlap with TSRC:    0.37324E-04
Hessian eigenvector    39(     0.503) has overlap with TSRC:    0.35898E-04
Hessian eigenvector    40(     0.509) has overlap with TSRC:    0.67257E-04
Hessian eigenvector    41(     0.520) has overlap with TSRC:    0.40464E-02
Hessian eigenvector    42(     0.540) has overlap with TSRC:    0.57462E-05
Hessian eigenvector    43(     0.540) has overlap with TSRC:    0.28202E-06
Hessian eigenvector    44(     0.540) has overlap with TSRC:    0.16350E-04
Hessian eigenvector    45(     0.568) has overlap with TSRC:    0.13680E-01
Hessian eigenvector     3 has the largest overlap with TSRC:  0.37295
           Primitive Internal Coordinates (atoms in internal order)
-------------------------------------------------------------------------------
    index    type      i       j       k       l   value(A,deg)     Max Ovl Vect
-------------------------------------------------------------------------------
       1     bnd       1       3       0       0     1.09008121     0.00049877
       2     bnd       2       6       0       0     1.08538889     0.00008831
       3     bnd       2       3       0       0     1.35587693     0.01914245
       4     bnd       3       4       0       0     1.47102320    -0.00100100
       5     bnd       4      12       0       0     1.11096168    -0.00114294
       6     bnd       4       5       0       0     1.22392769    -0.00025735
       7     bnd       8      10       0       0     1.08374132    -0.00013629
       8     bnd       7      10       0       0     1.08301215    -0.00016924
       9     bnd       9      10       0       0     1.08260747    -0.00005802
      10     bnd       2      11       0       0     1.08424325     0.00174993
      11     bnd      13      15       0       0     2.16840872    -0.01950516
      12     bnd      13      17       0       0     2.16799256    -0.01914536
      13     bnd      13      14       0       0     2.15991471    -0.01312608
      14     bnd      13      16       0       0     2.16856798    -0.01944419
      15     bnd       2      10       0       0     2.58013897    -0.52772677
      16     bnd       3      10       0       0     3.30457977    -0.11193213
      17     bnd       5      14       0       0     3.31343537    -0.02007459
      18     bnd      10      14       0       0     6.17570640     0.00224547
      19     ang       6       2       3       0   120.28649314    -0.01395891
      20     ang       6       2      11       0   117.61028674    -0.01088632
      21     ang       6       2      10       0    84.58011982    -0.01172400
      22     ang       3       2      11       0   121.00815143    -0.00894164
      23     ang       3       2      10       0   110.27662667     0.19257708
      24     ang      11       2      10       0    85.02624777    -0.01208370
      25     ang       1       3       2       0   120.25883183    -0.00133662
      26     ang       1       3       4       0   116.08540357     0.00916918
      27     ang       1       3      10       0   110.30731008     0.02258241
      28     ang       2       3       4       0   123.65496194    -0.00829852
      29     ang       2       3      10       0    47.08732509    -0.17365632
      30     ang       4       3      10       0   112.15635046     0.07587485
      31     ang       3       4      12       0   114.47785842     0.00554142
      32     ang       3       4       5       0   125.60605060    -0.00772858
      33     ang      12       4       5       0   119.91057775     0.00205700
      34     lai       4       5      14      10   174.98889158     0.00988946
      35     ang       8      10       7       0   118.84149892    -0.00097829
      36     ang       8      10       9       0   118.93394938     0.00217464
      37     ang       8      10       2       0    95.69375137     0.00858417
      38     ang       8      10       3       0   118.32085645    -0.01066243
      39     ang       8      10      14       0    98.61314436    -0.01817251
      40     ang       7      10       9       0   118.90991933     0.00130555
      41     ang       7      10       2       0    97.27502957    -0.00802899
      42     ang       7      10       3       0    86.23604972    -0.01183004
      43     ang       7      10      14       0   140.48965184     0.00272723
      44     ang       9      10       2       0    95.25074598    -0.00746427
      45     ang       9      10       3       0    83.39577996     0.01609739
      46     ang       9      10      14       0    37.67610558     0.04400318
      47     ang       2      10      14       0    64.90082957    -0.04405838
      48     ang       3      10      14       0    63.74211347    -0.01446115
      49     ang      15      13      17       0   109.47945760     0.00051581
      50     ang      15      13      14       0   109.48924076     0.00060144
      51     ang      15      13      16       0   109.41582933     0.00133171
      52     ang      17      13      14       0   109.57541485     0.00065033
      53     ang      17      13      16       0   109.43139213    -0.00230255
      54     ang      14      13      16       0   109.43585244    -0.00079673
      55     ang      13      14      10       0   139.69691602     0.01603814
      56     ang       5      14      10       0    40.14347020     0.00829329
      57     lao       4       5      14      10    90.75913679     0.07547463
      58     dih       6       2       3       1   186.04898025     0.03529367
      59     dih       6       2       3       4     5.71001528     0.09696290
      60     dih       6       2       3      10    95.69090181     0.10119136
      61     dih      11       2       3       1    -6.20057888    -0.17037464
      62     dih      11       2       3       4   173.46045616    -0.10870540
      63     dih      11       2       3      10   263.44134269    -0.10447695
      64     dih      10       2       3       1    90.35807843    -0.06589769
      65     dih      10       2       3       4   -89.98088653    -0.00422846
      66     dih       1       3       4      12     5.81938781    -0.08228024
      67     dih       1       3       4       5   186.67965366    -0.02176502
      68     dih       2       3       4      12   186.14537667    -0.14148869
      69     dih       2       3       4       5     7.00564252    -0.08097346
      70     dih      10       3       4      12   133.88641814     0.02672206
      71     dih      10       3       4       5   -45.25331601     0.08723728
      72     dih      15      13      14      10    49.29938499     0.27098456
      73     dih      17      13      14      10   169.38449210     0.27238284
      74     dih      16      13      14      10   -70.62217299     0.26947315
      75     dih       6       2      10       8    58.13359860     0.04437259
      76     dih       6       2      10       7   178.22906959     0.04363828
      77     dih       6       2      10       9   -61.69528248     0.04201716
      78     dih       6       2      10       3   239.66841187     0.00044259
      79     dih       6       2      10      14   -38.72938060     0.06991614
      80     dih       3       2      10       8   178.46518672     0.04393000
      81     dih       3       2      10       7   -61.43934228     0.04319569
      82     dih       3       2      10       9    58.63630565     0.04157457
      83     dih       3       2      10      14    81.60220752     0.06947355
      84     dih      11       2      10       8   -60.26176143     0.05154619
      85     dih      11       2      10       7    59.83370957     0.05081188
      86     dih      11       2      10       9   179.90935750     0.04919076
      87     dih      11       2      10       3   121.27305185     0.00761620
      88     dih      11       2      10      14   202.87525937     0.07708974
      89     dih       1       3      10       8   245.33556803     0.07136398
      90     dih       1       3      10       7     6.24678295     0.06100206
      91     dih       1       3      10       9   125.93843810     0.06186548
      92     dih       1       3      10       2   247.07052619     0.02187009
      93     dih       1       3      10      14   159.70316213     0.09660590
      94     dih       2       3      10       8    -1.73495816     0.04949389
      95     dih       2       3      10       7   119.17625676     0.03913197
      96     dih       2       3      10       9   238.86791191     0.03999539
      97     dih       2       3      10      14   -87.36736406     0.07473581
      98     dih       4       3      10       8   114.27004902    -0.02212716
      99     dih       4       3      10       7   235.18126394    -0.03248909
     100     dih       4       3      10       9    -5.12708091    -0.03162567
     101     dih       4       3      10       2   116.00500718    -0.07162106
     102     dih       4       3      10      14    28.63764312     0.00311475
     103     dih       8      10      14      13    46.71020133     0.20654487
     104     dih       8      10      14       5   229.72942833    -0.02137880
     105     dih       7      10      14      13   208.61506143     0.13918970
     106     dih       7      10      14       5    31.63428843    -0.08873396
     107     dih       9      10      14      13   -80.47859296     0.20683420
     108     dih       9      10      14       5   102.54063405    -0.02108947
     109     dih       2      10      14      13   138.99429863     0.21783582
     110     dih       2      10      14       5   -37.98647437    -0.01008785
     111     dih       3      10      14      13   164.11704386     0.20411715
     112     dih       3      10      14       5   -12.86372914    -0.02380651
     113     dih      12       4      14      10   211.70652063    -0.05086850
 Oscillation detected, halving the step
 Persistent oscillations may indicate discontinuity in the atomic forces.
 
----------------------------------------------------------------------
Geometry Convergence after Step   4       (Hartree/Angstrom,Angstrom)
----------------------------------------------------------------------
current energy                               -3.09537353 Hartree
energy change                      -0.00010269     0.00017000    T
constrained gradient max            0.01315517     0.00100000    F
constrained gradient rms            0.00375976     0.00066667    F
gradient max                        0.01315517
gradient rms                        0.00375976
cart. step max                      0.09750817     0.01000000    F
cart. step rms                      0.02731767     0.00666667    F
 
 
--------
Geometry
--------
Formula: C4H7Cl4OTi
Atoms
  Index Symbol   x (angstrom)   y (angstrom)   z (angstrom)
      1      H     0.17989864    -1.88118982    -0.22752425
      2      C    -0.93300173    -0.15019500     0.30476902
      3      C     0.19657516    -0.80334812    -0.06532227
      4      C     1.49089040    -0.13670735    -0.27577644
      5      O     1.73507528     1.03737714    -0.03205550
      6      H    -0.94179663     0.93328444     0.36900248
      7      H    -1.18350836    -1.12821109     3.03368926
      8      H    -2.05511817     0.51373382     2.87842966
      9      H    -0.19532098     0.45347972     3.01877885
     10      C    -1.13571256    -0.05979583     2.86303952
     11      H    -1.88770345    -0.66333374     0.34242010
     12      H     2.28903396    -0.79706982    -0.67942487
     13     Ti     3.05508436     6.30867514     0.62660137
     14     Cl     2.55215784     4.22276094     0.37381057
     15     Cl     3.55768404     6.68539986     2.70281230
     16     Cl     1.35655326     7.53408660     0.06155574
     17     Cl     4.75169691     6.80494616    -0.62982180
 
Total System Charge             0.00000
 
 *** GOStep5 ***

 Energy gradients wrt nuclear displacements
 ==========================================

     Atom      Cartesian (a.u./angstrom)
                 X         Y         Z
 ----------------------------------------
     1 H     0.000012 -0.000204  0.000346
     2 C     0.000236 -0.001035  0.002364
     3 C     0.000705  0.000922  0.000541
     4 C     0.001124 -0.002757 -0.005200
     5 O     0.001907  0.003423  0.001674
     6 H    -0.000319 -0.000040 -0.000107
     7 H     0.000096  0.000009 -0.000224
     8 H     0.000042  0.000072 -0.000166
     9 H     0.000012 -0.000105  0.000176
    10 C    -0.000659  0.000248 -0.000618
    11 H     0.000253  0.000354 -0.000681
    12 H    -0.002490  0.002604  0.002276
    13 Ti    0.000759  0.003605  0.000625
    14 Cl    0.001208  0.005567  0.000690
    15 Cl   -0.003042 -0.002256 -0.012579
    16 Cl    0.010323 -0.007438  0.003402
    17 Cl   -0.010169 -0.002971  0.007481
 ----------------------------------------
 Mulliken charges used for AMS results%charges...
Hessian eigenvector     1(     0.000) has overlap with TSRC:    0.34591E+00
Hessian eigenvector     2(     0.001) has overlap with TSRC:    0.12715E+00
[...]
     5     O       0.046675   0.028514   0.024057
     6     H      -0.423717   0.199180   0.067720
     7     H      -0.002196   0.002961   0.000287
     8     H      -0.004429  -0.002762   0.003965
     9     H       0.001439  -0.003553   0.001843
    10     C       0.001893   0.000820  -0.002014
    11     H       0.232226  -0.479210  -0.207250
    12     H       0.078118   0.062201   0.166776
    13    Ti      -0.000035   0.000037  -0.000018
    14    Cl       0.000013  -0.000051   0.000013
    15    Cl       0.000002  -0.000001   0.000000
    16    Cl       0.000015  -0.000007  -0.000011
    17    Cl       0.000016   0.000001   0.000021
 
 Mode:    38      Frequency (cm-1):     1266.0655     Intensity (km/mol):        7.6808
 Index  Atom      ---- Displacements (x/y/z) ----
     1     H      -0.704171   0.383092  -0.041212
     2     C       0.006868  -0.135641  -0.010207
     3     C       0.012028   0.121960   0.017251
     4     C       0.009266  -0.003610   0.002181
     5     O       0.000444   0.016307   0.004032
     6     H       0.453158  -0.293429  -0.013829
     7     H       0.011080  -0.004055   0.007404
     8     H       0.005404   0.007647   0.015519
     9     H      -0.006071  -0.000294   0.010397
    10     C       0.001215  -0.000618  -0.007713
    11     H       0.013597  -0.062086  -0.013656
    12     H      -0.129769  -0.076316  -0.046584
    13    Ti       0.000066  -0.000039   0.000015
    14    Cl      -0.000021   0.000046  -0.000016
    15    Cl      -0.000018  -0.000006   0.000000
    16    Cl      -0.000028   0.000012   0.000022
    17    Cl      -0.000024  -0.000002  -0.000027
 
 Mode:    39      Frequency (cm-1):     1378.0101     Intensity (km/mol):        6.6480
 Index  Atom      ---- Displacements (x/y/z) ----
     1     H       0.044216  -0.011563   0.006383
     2     C      -0.001049   0.005526   0.000731
     3     C      -0.012748   0.008510  -0.000613
     4     C      -0.003198   0.003842   0.000848
     5     O      -0.001058  -0.010357  -0.002773
     6     H       0.059652  -0.017435   0.010440
     7     H       0.579006  -0.276334   0.174868
     8     H       0.527020   0.472346   0.082298
     9     H      -0.105380   0.044385   0.042379
    10     C      -0.083544  -0.020368  -0.025672
    11     H       0.015745  -0.081559  -0.008016
    12     H       0.093662   0.064191   0.029796
    13    Ti      -0.000027  -0.000002   0.000005
    14    Cl       0.000008  -0.000003   0.000002
    15    Cl       0.000013   0.000006  -0.000001
    16    Cl       0.000013  -0.000003  -0.000008
    17    Cl       0.000004   0.000002   0.000001
 
 Mode:    40      Frequency (cm-1):     1382.1488     Intensity (km/mol):        7.5326
 Index  Atom      ---- Displacements (x/y/z) ----
     1     H      -0.110304   0.018663  -0.011821
     2     C       0.004868  -0.010233  -0.000520
     3     C       0.034906  -0.029584   0.000122
     4     C       0.008862  -0.007487  -0.002278
     5     O       0.002179   0.026520   0.007753
     6     H      -0.196425   0.066267  -0.031478
     7     H      -0.296129   0.053137  -0.172026
     8     H       0.295450   0.198138   0.142754
     9     H      -0.091617   0.700892  -0.104626
    10     C       0.006893  -0.079417   0.012449
    11     H      -0.039683   0.225576   0.019539
    12     H      -0.257025  -0.174723  -0.081752
    13    Ti      -0.000033  -0.000016   0.000028
    14    Cl       0.000005   0.000014  -0.000007
    15    Cl       0.000023   0.000010  -0.000002
    16    Cl       0.000017  -0.000004  -0.000015
    17    Cl      -0.000000   0.000002  -0.000014
 
 Mode:    41      Frequency (cm-1):     1385.0125     Intensity (km/mol):        7.1142
 Index  Atom      ---- Displacements (x/y/z) ----
     1     H      -0.112383  -0.006739  -0.014818
     2     C       0.007521  -0.004560   0.000929
     3     C       0.034963  -0.050627  -0.004952
     4     C       0.040046  -0.023943  -0.002424
     5     O       0.002503   0.063905   0.017968
     6     H      -0.257935   0.096062  -0.038988
     7     H       0.273618  -0.082822   0.125332
     8     H      -0.057232  -0.014132  -0.063576
     9     H       0.029204  -0.370480   0.063816
    10     C      -0.021518   0.039691  -0.008609
    11     H      -0.044430   0.261684   0.020905
    12     H      -0.596991  -0.428222  -0.198585
    13    Ti      -0.000018   0.000059  -0.000016
    14    Cl       0.000005  -0.000056   0.000014
    15    Cl      -0.000007  -0.000007  -0.000000
    16    Cl       0.000015  -0.000012  -0.000012
    17    Cl       0.000011  -0.000004   0.000019
 
 Mode:    42      Frequency (cm-1):     1398.4758     Intensity (km/mol):       42.8260
 Index  Atom      ---- Displacements (x/y/z) ----
     1     H       0.351551  -0.143644   0.026540
     2     C       0.008597   0.041341   0.006326
     3     C      -0.129194   0.032050  -0.016310
     4     C       0.084698  -0.032689   0.005454
     5     O      -0.005868   0.043959   0.010884
     6     H       0.388041  -0.107645   0.080438
     7     H      -0.088335   0.026719  -0.038240
     8     H       0.020388   0.005235   0.023565
     9     H      -0.009592   0.121302  -0.021428
    10     C       0.007820  -0.013659   0.000281
    11     H       0.124390  -0.598350  -0.049261
    12     H      -0.358956  -0.323033  -0.143743
    13    Ti       0.000041  -0.000133   0.000027
    14    Cl      -0.000018   0.000123  -0.000034
    15    Cl       0.000021   0.000016  -0.000000
    16    Cl      -0.000038   0.000029   0.000038
    17    Cl      -0.000023   0.000007  -0.000041
 
 Mode:    43      Frequency (cm-1):     1540.3209     Intensity (km/mol):      128.9681
 Index  Atom      ---- Displacements (x/y/z) ----
     1     H       0.358290  -0.008220   0.038698
     2     C       0.199909  -0.210852   0.029564
     3     C      -0.254882   0.183083  -0.006556
     4     C       0.118821   0.076896   0.041001
     5     O      -0.048199  -0.071041  -0.027026
     6     H      -0.584470   0.067642  -0.198736
     7     H       0.006619   0.001934   0.018149
     8     H      -0.005724  -0.003161   0.009070
     9     H      -0.004060  -0.015212   0.011576
    10     C       0.005944  -0.000614  -0.017894
    11     H       0.125618   0.502246  -0.003831
    12     H       0.037654   0.004635   0.004999
    13    Ti       0.000066  -0.000152  -0.000007
    14    Cl      -0.000026   0.000140  -0.000035
    15    Cl       0.000017   0.000016   0.000003
    16    Cl      -0.000062   0.000044   0.000063
    17    Cl      -0.000020   0.000007  -0.000024
 
 Mode:    44      Frequency (cm-1):     1694.4354     Intensity (km/mol):      153.5673
 Index  Atom      ---- Displacements (x/y/z) ----
     1     H      -0.372122   0.009302  -0.061661
     2     C      -0.080417   0.101279   0.003293
     3     C       0.093455  -0.137842  -0.012317
     4     C       0.266707   0.479524   0.165726
     5     O      -0.165760  -0.315883  -0.109725
     6     H       0.202271   0.024071   0.044224
     7     H      -0.007407   0.003433  -0.008543
     8     H      -0.001398  -0.006000  -0.008521
     9     H       0.005847   0.002563  -0.015251
    10     C       0.000779  -0.000629   0.002172
    11     H      -0.048589  -0.224002  -0.023430
    12     H      -0.488121  -0.062664  -0.076956
    13    Ti       0.000115  -0.000521   0.000097
    14    Cl      -0.000062   0.000497  -0.000132
    15    Cl       0.000116   0.000077  -0.000001
    16    Cl      -0.000133   0.000109   0.000139
    17    Cl      -0.000076   0.000027  -0.000143
 
 Mode:    45      Frequency (cm-1):     2824.7775     Intensity (km/mol):      192.5628
 Index  Atom      ---- Displacements (x/y/z) ----
     1     H      -0.003851  -0.042596  -0.008125
     2     C       0.000203   0.000097   0.000045
     3     C      -0.000434   0.002474   0.000313
     4     C       0.049995  -0.064426  -0.009726
     5     O      -0.001779  -0.002376  -0.000909
     6     H      -0.000579   0.007035   0.000735
     7     H       0.000469   0.000348  -0.000057
     8     H       0.000359  -0.000329   0.000132
     9     H      -0.000808  -0.000269  -0.000056
    10     C      -0.000040   0.000046   0.000052
    11     H       0.001471  -0.002350  -0.000353
    12     H      -0.560903   0.811769   0.133055
    13    Ti       0.000008   0.000035  -0.000007
    14    Cl       0.000002  -0.000030   0.000009
    15    Cl      -0.000017  -0.000009   0.000000
    16    Cl       0.000004  -0.000006  -0.000005
    17    Cl       0.000001  -0.000002   0.000006
 
 Mode:    46      Frequency (cm-1):     3065.0678     Intensity (km/mol):        0.0794
 Index  Atom      ---- Displacements (x/y/z) ----
     1     H      -0.001522  -0.004187  -0.001021
     2     C      -0.001199   0.001543  -0.000184
     3     C       0.000114   0.000234   0.000130
     4     C       0.000234   0.000088   0.000073
     5     O      -0.000065  -0.000092  -0.000047
     6     H      -0.007035  -0.019967  -0.002387
     7     H      -0.222225  -0.527925   0.036474
     8     H      -0.362188   0.465115  -0.114970
     9     H       0.506741   0.094840   0.207373
    10     C       0.006602  -0.002707  -0.010961
    11     H       0.019417   0.002945   0.005483
    12     H      -0.000638   0.000652   0.000071
    13    Ti       0.000000  -0.000001   0.000001
    14    Cl      -0.000000   0.000002  -0.000001
    15    Cl       0.000001   0.000000  -0.000000
    16    Cl       0.000000   0.000000   0.000000
    17    Cl      -0.000000   0.000000  -0.000001
 
 Mode:    47      Frequency (cm-1):     3108.1592     Intensity (km/mol):       13.2602
 Index  Atom      ---- Displacements (x/y/z) ----
     1     H      -0.254595  -0.761316  -0.175345
     2     C      -0.025228   0.022169  -0.005878
     3     C       0.022529   0.063717   0.014906
     4     C      -0.003031   0.003079   0.000359
     5     O       0.000044  -0.000569  -0.000177
     6     H      -0.116684  -0.330185  -0.046530
     7     H       0.005024   0.012568  -0.000443
     8     H       0.006256  -0.008332   0.001924
     9     H      -0.011612  -0.002329  -0.004483
    10     C       0.000061  -0.000221   0.000415
    11     H       0.418700   0.065458   0.114267
    12     H       0.019709  -0.023515  -0.003292
    13    Ti      -0.000001  -0.000003  -0.000000
    14    Cl      -0.000000   0.000003  -0.000001
    15    Cl       0.000002   0.000001  -0.000000
    16    Cl      -0.000001   0.000001   0.000001
    17    Cl       0.000000   0.000000   0.000000
 
 Mode:    48      Frequency (cm-1):     3118.2501     Intensity (km/mol):        6.7852
 Index  Atom      ---- Displacements (x/y/z) ----
     1     H      -0.166925  -0.501830  -0.115759
     2     C       0.031092  -0.048277   0.005405
     3     C       0.010629   0.047326   0.010187
     4     C      -0.003424   0.000916  -0.000280
     5     O       0.000159   0.000373   0.000091
     6     H       0.208411   0.594047   0.083527
     7     H      -0.006235  -0.014102   0.001094
     8     H      -0.007148   0.008977  -0.001938
     9     H       0.012182   0.002410   0.004731
    10     C       0.000250   0.000276  -0.000923
    11     H      -0.519579  -0.079833  -0.142324
    12     H       0.017813  -0.018392  -0.002089
    13    Ti      -0.000000  -0.000014   0.000003
    14    Cl      -0.000001   0.000011  -0.000003
    15    Cl       0.000004   0.000002  -0.000000
    16    Cl      -0.000002   0.000003   0.000003
    17    Cl      -0.000001   0.000001  -0.000004
 
 Mode:    49      Frequency (cm-1):     3212.1853     Intensity (km/mol):        1.0478
 Index  Atom      ---- Displacements (x/y/z) ----
     1     H       0.025665   0.081701   0.018771
     2     C      -0.075277  -0.061028  -0.022736
     3     C      -0.002442  -0.008154  -0.001838
     4     C       0.000211  -0.000222  -0.000013
     5     O       0.000081   0.000279   0.000078
     6     H       0.209400   0.647671   0.087939
     7     H      -0.008455  -0.020488   0.001201
     8     H       0.001013  -0.000574   0.000220
     9     H      -0.019173  -0.003318  -0.007749
    10     C       0.002435   0.002236   0.000623
    11     H       0.684056   0.091801   0.184293
    12     H       0.000122  -0.001406  -0.000560
    13    Ti      -0.000001   0.000000   0.000001
    14    Cl      -0.000000  -0.000001  -0.000000
    15    Cl      -0.000000  -0.000000  -0.000000
    16    Cl       0.000000  -0.000000  -0.000001
    17    Cl      -0.000000  -0.000000  -0.000001
 
 Mode:    50      Frequency (cm-1):     3240.6514     Intensity (km/mol):        2.8433
 Index  Atom      ---- Displacements (x/y/z) ----
     1     H      -0.000341  -0.001372  -0.000366
     2     C       0.000557   0.000700   0.000250
     3     C       0.000073  -0.000004   0.000059
     4     C       0.000060   0.000019   0.000010
     5     O      -0.000013  -0.000019  -0.000006
     6     H      -0.003792  -0.009154  -0.000549
     7     H      -0.245534  -0.539870   0.041643
     8     H       0.470317  -0.589918   0.136778
     9     H       0.196589   0.056349   0.082270
    10     C      -0.035401   0.090349  -0.022057
    11     H      -0.003692  -0.000025  -0.000802
    12     H      -0.000035   0.000025  -0.000062
    13    Ti      -0.000002  -0.000002   0.000001
    14    Cl       0.000000   0.000001  -0.000000
    15    Cl       0.000002   0.000001  -0.000000
    16    Cl       0.000001  -0.000000  -0.000000
    17    Cl       0.000000   0.000000  -0.000001
 
 Mode:    51      Frequency (cm-1):     3251.1522     Intensity (km/mol):        1.4088
 Index  Atom      ---- Displacements (x/y/z) ----
     1     H      -0.000499  -0.001916  -0.000300
     2     C       0.002093   0.001748   0.000626
     3     C       0.000032   0.000153   0.000005
     4     C      -0.000050   0.000016  -0.000029
     5     O       0.000010  -0.000005  -0.000008
     6     H      -0.006609  -0.019303  -0.001748
     7     H      -0.208475  -0.514027   0.047027
     8     H      -0.110946   0.167634  -0.032989
     9     H      -0.723751  -0.133329  -0.310107
    10     C       0.087789   0.040425   0.024991
    11     H      -0.019918  -0.002967  -0.006614
    12     H       0.000045  -0.000185   0.000112
    13    Ti      -0.000001  -0.000001   0.000001
    14    Cl       0.000000   0.000001  -0.000000
    15    Cl       0.000001   0.000001   0.000000
    16    Cl       0.000000   0.000000  -0.000000
    17    Cl       0.000000   0.000000  -0.000000

PES point character: Geometry corresponds to a transition state.
                     (Hint: Very small negative frequencies do not count towards being a
                     transition state, as they usually indicate noise on a very flat PES. See
                     the PESPointCharacter%NegativeFrequenciesTolerance keyword documentation.)




 ============================
 Statistical Thermal Analysis  ***  ideal gas assumed  ***
 ============================
  
 Pressure:                  1.000000 atm.
 Temperature:             298.150000 K



 Moments of Inertia [amu*bohr^2] and principal axis
 ==================================================

        2337.2107      10831.3535      11314.7398
 ------------------------------------------------
           0.3650         -0.8400          0.4014
           0.9308          0.3210         -0.1747
           0.0179          0.4374          0.8991


 The rotational contribution to the molecular entropy includes
 a term, dependent on the symmetry number sigma. The results 
 reported below were computed using sigma = 1, determined from
 the point group symmetry of the input geometry (NOSYM). 
 If this is not the correct symmetry, try symmetrizing the molecule before
 running the calculation (note: linear molecules should be aligned along one
 of the Cartesian axes).
 Contributions from frequencies below 20 1/cm are not included in vibrational sums.
 Their contributions, if any, are reported separately.


     Temp                                                        Transl      Rotat     Vibrat     Total
     ----                                                        ------      -----     ------     -----

     298.15   Entropy (cal/mol-K):                               42.553     34.015     42.684    119.253
              Nuclear Internal Energy (kcal/mol):                 0.889      0.889     67.349     69.127
              Constant Volume Heat Capacity (cal/mol-K):          2.981      2.981     34.796     40.758
          (c) Constant Volume Heat Capacity (cal/mol-K):          2.981      2.981     33.607     39.569

 Contributions from frequencies below 20 1/cm
 Frequency (1/cm):                                    2.556     1.880     5.800
 Entropy (cal/mol-K):                                10.722    11.332     9.094
 Nuclear Internal Energy (kcal/mol):                  0.592     0.592     0.593
 Constant Volume Heat Capacity (cal/mol-K):           1.987     1.987     1.987

       Summary of energy terms
                                                   hartree              eV         kcal/mol           kJ/mol
                                      --------------------     -----------       ----------      -----------
      Energy from Engine:               -3.096785394558976        -84.2678         -1943.26         -8130.61
      Nuclear Internal Energy:           0.110160498936580          2.9976            69.13           289.23
  (c) Nuclear Internal Energy:           0.109441949678497          2.9781            68.68           287.34
      Internal Energy U:                -2.986624895622396        -81.2702         -1874.14         -7841.38
      pV/n = RT:                         0.000944186013486          0.0257             0.59             2.48
      Enthalpy H:                       -2.985680709608910        -81.2445         -1873.54         -7838.90
      -T*S:                             -0.056660713280646         -1.5418           -35.56          -148.76
  (c) -T*S:                             -0.063718795892760         -1.7339           -39.98          -167.29
      Gibbs free energy:                -3.042341422889557        -82.7863         -1909.10         -7987.67
 
 
 
  (c) The properties marked with this symbol have been corrected using 'low vibrational frequency free rotor
      interpolation corrections'. For those terms all positive frequencies are used (also ones below 20 1/cm),
      but the contribution to the partition function of small vibrational frequencies is modified as described
      in the following paper:
      S. Grimme, 'Supramolecular Binding Thermodynamics by Dispersion-Corrected Density Functional Theory'
      (Chem. Eur. J. 2012, 18, 9955-9964)
      Configuration: Dampener Frequency          :   100.000 1/cm
                     Dampener Alpha              :     4.000
                     Averaging Moment of Inertia : 1.000E-44 kg m2

--------------
Atomic charges
--------------
  Index   Atom    Charge
      1      H   -0.2185
      2      C    0.4807
      3      C    0.1867
      4      C    0.6380
      5      O   -0.5045
      6      H   -0.1672
      7      H   -0.1614
      8      H   -0.1649
      9      H   -0.1369
     10      C    0.5202
     11      H   -0.2082
     12      H   -0.2643
     13     Ti    0.8952
     14     Cl   -0.1955
     15     Cl   -0.2312
     16     Cl   -0.2347
     17     Cl   -0.2335


Dipole moment vector    (Debye):    -2.72888432   -1.64695900   -0.13474180
              magnitude (Debye):     3.19020986


Final PES point is a transition state. Transition state search successful!


AMS application finished. Exiting.
NORMAL TERMINATION
     Total cpu time:   50057.88
  Total system time:     547.71
 Total elapsed time:  101689.78
 WARNING: total elapsed time is much higher than the (CPU+system) time. 
 Make sure the machine is not oversubscribed and has enough memory, SCM_TMPDIR p
 oints to a fast file system, and the network is fast enough.
