

 Parallel Execution: Process Information
 ==============================================================================
 Rank   Node Name                              NodeID   MyNodeRank  NodeMaster
    0   node115                                   0          0          0
    1   node115                                   0          1         -1
    2   node115                                   0          2         -1
    3   node115                                   0          3         -1
 ==============================================================================


May use up to 122928MB of RAM as shared memory on node 0

 *******************************************************************************
 *                                                                             *
 *  --------------------------------                                           *
 *   Amsterdam Modeling Suite (AMS)              2021.102                      *
 *  --------------------------------                                           *
 *                                               r95042 2021-06-07             *
 *                                                                             *
 *                                                                             *
 *                              =================                              *
 *                              |               |                              *
 *                              |     A M S     |                              *
 *                              |               |                              *
 *                              =================                              *
 *                                                                             *
 *                                                                             *
 *   Online information and documentation:  https://www.scm.com/support/       *
 *   E-mail:  support@scm.com   info@scm.com                                   *
 *                                                                             *
 *   Scientific publications using AMS results must be properly referenced     *
 *   See the User Manuals (or the web site) for recommended citations          *
 *   The terms and conditions of the End User License Agreement apply to       *
 *   the use of AMS, https://www.scm.com/license-terms/                        *
 *                                                                             *
 **********************  x86_64_linux_intel / intelmpi  ************************
 
 Licensed to: VU/FEW (+ SARA) / ALGEMEEN / Amsterdam / THE NETHERLANDS
 SCM User ID: u7668
  
 AMS 2021.102  RunTime: Jan22-2022 23:26:43  ShM Nodes: 1  Procs: 4

 AMS jobname: 36.achiral_catalyst.H_H_TiCl4.Rsub_cat_complex
 AMS jobid  : 108694970

 Start   directory: /scistor/tc/yhk800/MasterProject/calculations/achiral_catalyst_H_H_TiCl4/36.achiral_catalyst.H_H_TiCl4.Rsub_cat_complex/
 Results directory: /scistor/tc/yhk800/MasterProject/calculations/achiral_catalyst_H_H_TiCl4/36.achiral_catalyst.H_H_TiCl4.Rsub_cat_complex/
 Scratch directory: /scratch/3981/amstmp_36.achiral_catalyst.H_H_TiCl4.Rsub_cat_complex_kid0.108694970/


 Communication costs MPI_COMM_WORLD:      1.102 usec per message,   0.0032 usec per 8-byte item
 Communication costs for intra-node:      0.876 usec per message,   0.0035 usec per 8-byte item

 RNG seed: 1769618432 621263925 -1990091858 -1225134971 1831516746 317634827 1024720258 1473057150



                      ************************************************************************
                      *  ADF 2021.102  RunTime: Jan22-2022 23:26:44  ShM Nodes: 1  Procs: 4  *
                      ************************************************************************
  
       ***************************
       *  GEOMETRY OPTIMIZATION  *
       ***************************

Optimization Method                    Quasi Newton
Optimization Coordinates               Delocalized Coordinates
Optimize lattice                       F
 
 ------------------------------------------------------
 Convergence criteria (Hartree,Angstrom)
 ------------------------------------------------------
 Maximum gradient               0.001000000000
 Maximum rms gradient           0.000666666667
 Maximum step allowed           0.010000000000
 Maximum rms step allowed       0.006666666667
 Maximum energy change allowe   0.000130000000
 Maximum stress energy allowe   0.000500000000
 
Initial model Hessian                  Automatic Hessian
 
------------------------------------
Quasi-Newton Optimizer Parameters
------------------------------------
Hessian Update Method                  BFGS
Maximum number of steps                  250
First GDIIS cycle                          0
Maximum GDIIS vectors                      0
Trust radius (bohr)                        0.200000
Trust radius varies                        T
Constraints converged at all steps         T
Use projector                              T
 
 Rigid motions settings for: old optimizer
 Atomic rotations (x,y,z):     T T T
 Atomic translations (x,y,z):  T T T
 Tolerance:                   1.000000000000000E-006
 
--------
Geometry
--------
Formula: C3H4Cl4OTi
Atoms
  Index Symbol   x (angstrom)   y (angstrom)   z (angstrom)
      1      H     0.09039378    -1.80988465    -0.51555853
      2      C    -0.90781845    -0.00771283    -0.04943451
      3      C     0.18266548    -0.75219647    -0.26512258
      4      C     1.55928918    -0.22013974    -0.18291419
      5      O     1.86635738     0.93365884     0.07180470
      6      H    -0.82431619     1.04491294     0.20242594
      7      H    -1.88982657    -0.42714089    -0.11755322
      8      H     2.32514145    -0.94333367    -0.37095895
      9     Ti     2.35860723     5.98168367     2.01084981
     10     Cl     2.11649976     4.00970191     1.24030281
     11     Cl     2.13992811     5.94795629     4.13031027
     12     Cl     0.87988346     7.26155523     1.16446008
     13     Cl     4.29811760     6.70752125     1.50832605
 
Total System Charge             0.00000
 
 
----------------
ADF Engine Input
----------------
 
 NumericalQuality VeryGood
 SCF
 Converge 1.0e-6
 Iterations 99
 End
 SYMMETRY NOSYM
 XC
 GGA OLYP
 End
 basis
 core None
 type TZ2P
 End
 

 Title: *** (NO TITLE) ***

 Using automatic Hessian for delocalized coordinates.
 *** GOStep1 ***

 Energy gradients wrt nuclear displacements
 ==========================================

     Atom      Cartesian (a.u./angstrom)
                 X         Y         Z
 ----------------------------------------
     1 H    -0.000489 -0.000658 -0.000167
     2 C    -0.013414 -0.008016 -0.001559
     3 C     0.004058  0.002237  0.000445
     4 C     0.024953 -0.036659 -0.008852
     5 O     0.004477  0.004287  0.001228
     6 H    -0.001215 -0.001925 -0.000309
     7 H     0.020411  0.008117  0.001229
     8 H    -0.038342  0.036396  0.009406
     9 Ti    0.000135  0.007293  0.002949
    10 Cl    0.003370  0.026960  0.010590
    11 Cl    0.004273  0.000587 -0.040827
    12 Cl    0.028644 -0.024771  0.016306
    13 Cl   -0.036860 -0.013848  0.009560
 ----------------------------------------
 Mulliken charges used for AMS results%charges...
 
----------------------------------------------------------------------
Geometry Convergence after Step   1       (Hartree/Angstrom,Angstrom)
----------------------------------------------------------------------
current energy                               -2.44781256 Hartree
energy change                      -2.44781256     0.00013000    F
constrained gradient max            0.04082858     0.00100000    F
constrained gradient rms            0.01729521     0.00066667    F
gradient max                        0.04082858
gradient rms                        0.01729521
cart. step max                      0.02752412     0.01000000    F
cart. step rms                      0.01062610     0.00666667    F
 
 
--------
Geometry
--------
Formula: C3H4Cl4OTi
Atoms
  Index Symbol   x (angstrom)   y (angstrom)   z (angstrom)
      1      H     0.08574330    -1.81283568    -0.51516253
      2      C    -0.91352520    -0.00778469    -0.05392200
      3      C     0.17905613    -0.75527780    -0.26631707
      4      C     1.56239105    -0.22748715    -0.18224207
      5      O     1.86350342     0.92681307     0.07502966
      6      H    -0.82526950     1.04666293     0.19353986
      7      H    -1.90819746    -0.42821742    -0.12310210
      8      H     2.34987189    -0.97085779    -0.37259611
      9     Ti     2.36050478     5.98964233     2.01383092
     10     Cl     2.11578433     4.00426681     1.23771354
     11     Cl     2.14842731     5.95482000     4.15533194
     12     Cl     0.86101711     7.28060087     1.16673191
     13     Cl     4.31561506     6.72623641     1.49810173
 
Total System Charge             0.00000
 
 *** GOStep2 ***

 Energy gradients wrt nuclear displacements
 ==========================================

     Atom      Cartesian (a.u./angstrom)
                 X         Y         Z
 ----------------------------------------
     1 H    -0.000163 -0.000115 -0.000155
     2 C    -0.006198 -0.001474  0.000117
     3 C     0.003882  0.001474  0.000286
     4 C     0.007288 -0.017680 -0.004398
     5 O     0.002364  0.007830  0.002298
     6 H    -0.000283 -0.000574 -0.000262
     7 H     0.005199  0.002211  0.000319
     8 H    -0.011648  0.012090  0.003195
     9 Ti   -0.000075  0.003374  0.001402
    10 Cl    0.001991  0.015840  0.006234
    11 Cl    0.002478  0.000399 -0.024713
    12 Cl    0.017416 -0.014973  0.009801
    13 Cl   -0.022252 -0.008401  0.005877
 ----------------------------------------
 Mulliken charges used for AMS results%charges...

 dE(predicted):    -0.25287E-02, dE(actual):    -0.37508E-02, Trust radius:    0.200000, all in a.u.
 
----------------------------------------------------------------------
Geometry Convergence after Step   2       (Hartree/Angstrom,Angstrom)
----------------------------------------------------------------------
current energy                               -2.45156338 Hartree
energy change                      -0.00375082     0.00013000    F
constrained gradient max            0.02471601     0.00100000    F
constrained gradient rms            0.00875258     0.00066667    F
gradient max                        0.02471601
gradient rms                        0.00875258
cart. step max                      0.03155265     0.01000000    F
cart. step rms                      0.01134882     0.00666667    F
 
 
--------
Geometry
--------
Formula: C3H4Cl4OTi
Atoms
  Index Symbol   x (angstrom)   y (angstrom)   z (angstrom)
      1      H     0.08014182    -1.82043433    -0.51440663
      2      C    -0.91535945    -0.01069088    -0.06133919
      3      C     0.17428153    -0.76252449    -0.26833926
      4      C     1.56099436    -0.23463650    -0.17996115
      5      O     1.85861452     0.91645439     0.07679064
      6      H    -0.82197918     1.04323748     0.19000519
      7      H    -1.91841034    -0.43017868    -0.13088511
      8      H     2.36178493    -0.99367026    -0.37819452
      9     Ti     2.36351164     6.00075751     2.01748317
     10     Cl     2.11565946     3.99757501     1.23398751
     11     Cl     2.15487104     5.96441008     4.18688459
     12     Cl     0.84021639     7.30693905     1.16563682
     13     Cl     4.34059550     6.74934349     1.48927561
 
Total System Charge             0.00000
 
 *** GOStep3 ***

 Energy gradients wrt nuclear displacements
 ==========================================

     Atom      Cartesian (a.u./angstrom)
                 X         Y         Z
 ----------------------------------------
     1 H    -0.000179 -0.000067  0.000161
     2 C     0.002445  0.000780 -0.000837
     3 C     0.000385  0.001979  0.000125
     4 C    -0.002571  0.003801  0.002196
     5 O    -0.000755  0.001431  0.000417
     6 H     0.000326  0.000248  0.000503
     7 H    -0.003290 -0.001531  0.000018
     8 H     0.004080 -0.002949 -0.001208
     9 Ti   -0.000219 -0.000499 -0.000157
    10 Cl    0.000283  0.002236  0.000916
    11 Cl    0.000571  0.000135 -0.005905
    12 Cl    0.004196 -0.003576  0.002356
    13 Cl   -0.005271 -0.001987  0.001414
 ----------------------------------------
 Mulliken charges used for AMS results%charges...

 dE(predicted):    -0.14518E-02, dE(actual):    -0.16768E-02, Trust radius:    0.200000, all in a.u.
 
----------------------------------------------------------------------
Geometry Convergence after Step   3       (Hartree/Angstrom,Angstrom)
----------------------------------------------------------------------
current energy                               -2.45324018 Hartree
energy change                      -0.00167680     0.00013000    F
constrained gradient max            0.00590629     0.00100000    F
constrained gradient rms            0.00221662     0.00066667    F
gradient max                        0.00590629
gradient rms                        0.00221662
cart. step max                      0.00978425     0.01000000    T
cart. step rms                      0.00428842     0.00666667    T
 
 
--------
Geometry
--------
Formula: C3H4Cl4OTi
Atoms
  Index Symbol   x (angstrom)   y (angstrom)   z (angstrom)
      1      H     0.07919332    -1.82500471    -0.51121714
      2      C    -0.91501620    -0.01408489    -0.05537736
      3      C     0.17320082    -0.76691023    -0.26620079
      4      C     1.55968771    -0.23518891    -0.18965501
      5      O     1.85855419     0.91546601     0.06915936
      6      H    -0.82088344     1.04327980     0.18022095
      7      H    -1.91784104    -0.43082526    -0.12756107
      8      H     2.35901090    -0.99862986    -0.37731117
      9     Ti     2.36450209     6.00448103     2.01956740
     10     Cl     2.11598345     3.99598429     1.23422076
     11     Cl     2.15254563     5.96758881     4.19605856
     12     Cl     0.83706329     7.31535709     1.16328378
     13     Cl     4.34892150     6.75506870     1.49174943
 
Total System Charge             0.00000
 
 *** GOStep4 ***

 Energy gradients wrt nuclear displacements
 ==========================================

     Atom      Cartesian (a.u./angstrom)
                 X         Y         Z
 ----------------------------------------
     1 H    -0.000130  0.000010 -0.000317
     2 C     0.001830  0.000125  0.002102
     3 C    -0.000047  0.000227  0.001221
     4 C    -0.002808  0.005147 -0.002653
     5 O    -0.000236  0.002251  0.002282
     6 H     0.000105  0.000399 -0.000648
     7 H    -0.002021 -0.000714 -0.001040
     8 H     0.003742 -0.003807  0.000414
     9 Ti   -0.000183 -0.001117 -0.000448
    10 Cl   -0.000188 -0.001446 -0.000506
    11 Cl    0.000107  0.000036 -0.001202
    12 Cl    0.000878 -0.000733  0.000508
    13 Cl   -0.001049 -0.000378  0.000287
 ----------------------------------------
 Mulliken charges used for AMS results%charges...

 dE(predicted):    -0.10168E-03, dE(actual):    -0.10544E-03, Trust radius:    0.200000, all in a.u.
 
----------------------------------------------------------------------
Geometry Convergence after Step   4       (Hartree/Angstrom,Angstrom)
----------------------------------------------------------------------
current energy                               -2.45334562 Hartree
energy change                      -0.00010544     0.00013000    T
constrained gradient max            0.00514713     0.00100000    F
constrained gradient rms            0.00163563     0.00066667    F
gradient max                        0.00514713
gradient rms                        0.00163563
cart. step max                      0.01324166     0.01000000    F
cart. step rms                      0.00480090     0.00666667    T
 
 
--------
Geometry
--------
Formula: C3H4Cl4OTi
Atoms
  Index Symbol   x (angstrom)   y (angstrom)   z (angstrom)
      1      H     0.07631237    -1.82762316    -0.51442213
      2      C    -0.91427659    -0.01250770    -0.06276947
      3      C     0.17175406    -0.76968131    -0.26973929
      4      C     1.55950624    -0.24338139    -0.17823976
      5      O     1.86157333     0.90838445     0.07346126
      6      H    -0.81755642     1.04188887     0.18377881
      7      H    -1.91619290    -0.42834739    -0.12334869
      8      H     2.35375579    -1.00201513    -0.39055283
      9     Ti     2.36484587     6.00866247     2.02037751
     10     Cl     2.11797477     3.99533989     1.23312777
     11     Cl     2.15079395     5.97151228     4.20289304
     12     Cl     0.83205495     7.32130967     1.16033744
     13     Cl     4.35437680     6.76304031     1.49203403
 
Total System Charge             0.00000
 
 *** GOStep5 ***

 Energy gradients wrt nuclear displacements
 ==========================================

     Atom      Cartesian (a.u./angstrom)
                 X         Y         Z
 ----------------------------------------
     1 H     0.000048 -0.000004 -0.000130
     2 C     0.000076  0.000785 -0.001320
     3 C    -0.000287 -0.000387 -0.002000
     4 C    -0.001252  0.001411  0.006890
     5 O     0.000134  0.003627 -0.000776
     6 H    -0.000150 -0.000009  0.000134
     7 H     0.000270 -0.000243  0.001071
     8 H     0.001587 -0.001604 -0.002548
     9 Ti   -0.000127 -0.001504 -0.000575
    10 Cl   -0.000579 -0.004544 -0.001720
    11 Cl   -0.000274 -0.000033  0.002633
    12 Cl   -0.001851  0.001583 -0.001023
    13 Cl    0.002403  0.000921 -0.000634
 ----------------------------------------
 Mulliken charges used for AMS results%charges...

 dE(predicted):    -0.75100E-04, dE(actual):    -0.28407E-05, Trust radius:    0.033614, all in a.u.
 
----------------------------------------------------------------------
Geometry Convergence after Step   5       (Hartree/Angstrom,Angstrom)
----------------------------------------------------------------------
current energy                               -2.45334846 Hartree
energy change                      -0.00000284     0.00013000    T
constrained gradient max            0.00689049     0.00100000    F
constrained gradient rms            0.00183889     0.00066667    F
gradient max                        0.00689049
gradient rms                        0.00183889
cart. step max                      0.00381858     0.01000000    T
cart. step rms                      0.00140378     0.00666667    T
 
 
--------
Geometry
--------
Formula: C3H4Cl4OTi
Atoms
  Index Symbol   x (angstrom)   y (angstrom)   z (angstrom)
      1      H     0.07676137    -1.82682649    -0.51407094
      2      C    -0.91417844    -0.01245953    -0.06153275
      3      C     0.17219510    -0.76891778    -0.26921390
      4      C     1.55973840    -0.24231775    -0.18205834
      5      O     1.86092726     0.90896474     0.07166382
      6      H    -0.81763319     1.04191915     0.18511420
      7      H    -1.91600360    -0.42833014    -0.12366268
      8      H     2.35392563    -1.00057081    -0.38676522
      9     Ti     2.36463980     6.00789798     2.02017193
     10     Cl     2.11788152     3.99652444     1.23349973
     11     Cl     2.15049545     5.97059757     4.19975928
     12     Cl     0.83434480     7.31916896     1.16101457
     13     Cl     4.35182812     6.76093153     1.49301798
 
Total System Charge             0.00000
 
 *** GOStep6 ***

 Energy gradients wrt nuclear displacements
 ==========================================

     Atom      Cartesian (a.u./angstrom)
                 X         Y         Z
 ----------------------------------------
     1 H     0.000102  0.000046 -0.000106
     2 C    -0.000047  0.000605 -0.001099
     3 C     0.000006  0.000072 -0.000831
     4 C    -0.000049  0.001217  0.003796
     5 O    -0.000291  0.002353 -0.000100
     6 H    -0.000090 -0.000056  0.000201
     7 H     0.000209 -0.000171  0.000722
     8 H     0.000587 -0.000508 -0.001263
     9 Ti   -0.000106 -0.001162 -0.000448
    10 Cl   -0.000414 -0.003213 -0.001200
    11 Cl   -0.000098 -0.000009  0.000862
    12 Cl   -0.000602  0.000516 -0.000328
    13 Cl    0.000795  0.000309 -0.000206
 ----------------------------------------
 Mulliken charges used for AMS results%charges...

 dE(predicted):    -0.42082E-04, dE(actual):    -0.47079E-04, Trust radius:    0.067228, all in a.u.
 
----------------------------------------------------------------------
Geometry Convergence after Step   6       (Hartree/Angstrom,Angstrom)
----------------------------------------------------------------------
current energy                               -2.45339554 Hartree
energy change                      -0.00004708     0.00013000    T
constrained gradient max            0.00379616     0.00100000    F
constrained gradient rms            0.00104289     0.00066667    F
gradient max                        0.00379616
gradient rms                        0.00104289
cart. step max                      0.00738744     0.01000000    T
cart. step rms                      0.00214725     0.00666667    T
 
 
--------
Geometry
--------
Formula: C3H4Cl4OTi
Atoms
  Index Symbol   x (angstrom)   y (angstrom)   z (angstrom)
      1      H     0.07533559    -1.82802492    -0.51075817
      2      C    -0.91359924    -0.01320450    -0.05696711
      3      C     0.17199240    -0.76971775    -0.26800711
      4      C     1.55985264    -0.24302199    -0.18944577
      5      O     1.86220626     0.90793636     0.06558847
      6      H    -0.81582878     1.04186242     0.18611381
      7      H    -1.91592668    -0.42664296    -0.12408939
      8      H     2.35257618    -1.00195791    -0.38655507
      9     Ti     2.36446775     6.00895286     2.02090028
     10     Cl     2.11900522     3.99793910     1.23464760
     11     Cl     2.14752037     5.97174637     4.19893007
     12     Cl     0.83613470     7.31919297     1.15989993
     13     Cl     4.35118580     6.76152184     1.49668014
 
Total System Charge             0.00000
 
 *** GOStep7 ***

 Energy gradients wrt nuclear displacements
 ==========================================

     Atom      Cartesian (a.u./angstrom)
                 X         Y         Z
 ----------------------------------------
     1 H     0.000091  0.000011  0.000102
     2 C    -0.000179 -0.000033  0.000383
     3 C     0.000055  0.000290 -0.000000
     4 C     0.000963  0.000165 -0.000284
     5 O    -0.000156  0.002345  0.001090
     6 H    -0.000048 -0.000064 -0.000007
     7 H     0.000335  0.000167 -0.000246
     8 H    -0.000643  0.000611  0.000264
     9 Ti   -0.000064 -0.000876 -0.000353
    10 Cl   -0.000353 -0.002700 -0.000993
    11 Cl   -0.000021 -0.000010  0.000090
    12 Cl   -0.000064  0.000055 -0.000030
    13 Cl    0.000083  0.000037 -0.000015
 ----------------------------------------
 Mulliken charges used for AMS results%charges...

 dE(predicted):    -0.24608E-04, dE(actual):    -0.30139E-04, Trust radius:    0.134455, all in a.u.
 
----------------------------------------------------------------------
Geometry Convergence after Step   7       (Hartree/Angstrom,Angstrom)
----------------------------------------------------------------------
current energy                               -2.45342567 Hartree
energy change                      -0.00003014     0.00013000    T
constrained gradient max            0.00270067     0.00100000    F
constrained gradient rms            0.00068718     0.00066667    F
gradient max                        0.00270067
gradient rms                        0.00068718
cart. step max                      0.00713067     0.01000000    T
cart. step rms                      0.00261093     0.00666667    T
 
 
--------
Geometry
--------
Formula: C3H4Cl4OTi
Atoms
  Index Symbol   x (angstrom)   y (angstrom)   z (angstrom)
      1      H     0.07270253    -1.82913735    -0.50898773
      2      C    -0.91286736    -0.01247392    -0.05589957
      3      C     0.17138440    -0.77064362    -0.26776243
      4      C     1.56004869    -0.24529403    -0.19551154
      5      O     1.86483391     0.90518096     0.05921437
      6      H    -0.81306213     1.04297585     0.18469488
      7      H    -1.91573582    -0.42539823    -0.11695872
      8      H     2.35098104    -1.00594788    -0.38776025
      9     Ti     2.36413398     6.01067058     2.02190920
     10     Cl     2.12111249     3.99948916     1.23507362
     11     Cl     2.14293902     5.97312714     4.19925539
     12     Cl     0.83711084     7.32011015     1.15796518
     13     Cl     4.35134062     6.76392307     1.50170527
 
Total System Charge             0.00000
 
 *** GOStep8 ***

 Energy gradients wrt nuclear displacements
 ==========================================

     Atom      Cartesian (a.u./angstrom)
                 X         Y         Z
 ----------------------------------------
     1 H     0.000060  0.000042 -0.000071
     2 C    -0.000305 -0.000065 -0.000054
     3 C     0.000145  0.000211  0.000982
     4 C     0.001400 -0.000186 -0.002352
     5 O    -0.000029  0.002150  0.001713
     6 H    -0.000005 -0.000093  0.000070
     7 H     0.000386  0.000168 -0.000104
     8 H    -0.001245  0.001184  0.001094
     9 Ti   -0.000032 -0.000726 -0.000295
    10 Cl   -0.000344 -0.002632 -0.000970
    11 Cl   -0.000007 -0.000014 -0.000049
    12 Cl    0.000027 -0.000021  0.000016
    13 Cl   -0.000053 -0.000017  0.000021
 ----------------------------------------
 Mulliken charges used for AMS results%charges...

 dE(predicted):    -0.11414E-04, dE(actual):    -0.18919E-04, Trust radius:    0.134455, all in a.u.
 
----------------------------------------------------------------------
Geometry Convergence after Step   8       (Hartree/Angstrom,Angstrom)
----------------------------------------------------------------------
current energy                               -2.45344459 Hartree
energy change                      -0.00001892     0.00013000    T
constrained gradient max            0.00263252     0.00100000    F
constrained gradient rms            0.00086502     0.00066667    F
gradient max                        0.00263252
gradient rms                        0.00086502
cart. step max                      0.02013712     0.01000000    F
cart. step rms                      0.00914691     0.00666667    F
 
 
--------
Geometry
--------
Formula: C3H4Cl4OTi
Atoms
  Index Symbol   x (angstrom)   y (angstrom)   z (angstrom)
      1      H     0.06104473    -1.83349955    -0.50240813
      2      C    -0.90947677    -0.00993186    -0.04689424
      3      C     0.16865378    -0.77502907    -0.26450399
      4      C     1.56100530    -0.25796874    -0.21018019
      5      O     1.87614447     0.89113735     0.03907725
      6      H    -0.80085934     1.04747319     0.18122384
      7      H    -1.91579434    -0.41520007    -0.10385043
      8      H     2.34465714    -1.02313159    -0.40041211
      9     Ti     2.36266077     6.01818063     2.02590240
     10     Cl     2.13063279     4.00586915     1.23851768
     11     Cl     2.12955411     5.98057469     4.20073220
     12     Cl     0.83738937     7.32166576     1.15299292
     13     Cl     4.34931020     6.77644199     1.51674047
 
Total System Charge             0.00000
 
 *** GOStep9 ***

 Energy gradients wrt nuclear displacements
 ==========================================

     Atom      Cartesian (a.u./angstrom)
                 X         Y         Z
 ----------------------------------------
     1 H    -0.000032  0.000078 -0.000410
     2 C    -0.000349 -0.000913  0.001580
     3 C     0.000436  0.000682  0.001954
     4 C     0.002375 -0.001802 -0.005191
     5 O     0.000321  0.001702  0.002311
     6 H     0.000117  0.000059 -0.000596
     7 H     0.000191  0.000361 -0.000822
     8 H    -0.002681  0.002968  0.002347
     9 Ti    0.000060 -0.000179 -0.000072
    10 Cl   -0.000280 -0.002200 -0.000815
    11 Cl    0.000073 -0.000016 -0.000770
    12 Cl    0.000514 -0.000436  0.000287
    13 Cl   -0.000747 -0.000304  0.000197
 ----------------------------------------
 Mulliken charges used for AMS results%charges...

 dE(predicted):    -0.47160E-04, dE(actual):    -0.68567E-04, Trust radius:    0.268910, all in a.u.
 
----------------------------------------------------------------------
Geometry Convergence after Step   9       (Hartree/Angstrom,Angstrom)
----------------------------------------------------------------------
current energy                               -2.45351316 Hartree
energy change                      -0.00006857     0.00013000    T
constrained gradient max            0.00519105     0.00100000    F
constrained gradient rms            0.00145388     0.00066667    F
gradient max                        0.00519105
gradient rms                        0.00145388
cart. step max                      0.04651728     0.01000000    F
cart. step rms                      0.02084615     0.00666667    F
 
 
--------
Geometry
--------
Formula: C3H4Cl4OTi
Atoms
  Index Symbol   x (angstrom)   y (angstrom)   z (angstrom)
      1      H     0.03324778    -1.84221714    -0.49116134
      2      C    -0.90111577     0.00034903    -0.03782678
      3      C     0.16152431    -0.78378914    -0.26284540
      4      C     1.56254274    -0.28936827    -0.23856173
      5      O     1.90331613     0.85633276    -0.00438879
      6      H    -0.77100387     1.05588735     0.18825260
      7      H    -1.91488312    -0.38855941    -0.07615151
      8      H     2.32936451    -1.06964888    -0.42381612
      9     Ti     2.35881484     6.03575500     2.03409790
     10     Cl     2.15507063     4.02035543     1.24254896
     11     Cl     2.10125990     5.99547018     4.20581778
     12     Cl     0.83255773     7.32564860     1.14344841
     13     Cl     4.34422642     6.81036639     1.54752371
 
Total System Charge             0.00000
 
 *** GOStep10 ***

 Energy gradients wrt nuclear displacements
 ==========================================

     Atom      Cartesian (a.u./angstrom)
                 X         Y         Z
 ----------------------------------------
     1 H    -0.000058 -0.000078 -0.000319
     2 C    -0.000336 -0.001155 -0.000090
     3 C     0.000725  0.000778  0.003857
     4 C     0.002072 -0.004085 -0.009068
     5 O     0.001509  0.002498  0.003424
     6 H     0.000292 -0.000061  0.000318
     7 H    -0.000030  0.000353 -0.000800
     8 H    -0.003823  0.004572  0.003741
     9 Ti    0.000128  0.000510  0.000271
    10 Cl   -0.000218 -0.002445 -0.000966
    11 Cl    0.000089 -0.000019 -0.000839
    12 Cl    0.000520 -0.000432  0.000281
    13 Cl   -0.000871 -0.000437  0.000191
 ----------------------------------------
 Mulliken charges used for AMS results%charges...

 dE(predicted):    -0.10556E-03, dE(actual):    -0.14796E-03, Trust radius:    0.537820, all in a.u.
 
----------------------------------------------------------------------
Geometry Convergence after Step  10       (Hartree/Angstrom,Angstrom)
----------------------------------------------------------------------
current energy                               -2.45366112 Hartree
energy change                      -0.00014796     0.00013000    F
constrained gradient max            0.00906890     0.00100000    F
constrained gradient rms            0.00227041     0.00066667    F
gradient max                        0.00906890
gradient rms                        0.00227041
cart. step max                      0.10634872     0.01000000    F
cart. step rms                      0.04432169     0.00666667    F
 
 
--------
Geometry
--------
Formula: C3H4Cl4OTi
Atoms
  Index Symbol   x (angstrom)   y (angstrom)   z (angstrom)
      1      H    -0.02826477    -1.85420191    -0.47916891
      2      C    -0.88026779     0.02614681    -0.01765816
      3      C     0.14553716    -0.80017586    -0.25988328
      4      C     1.56411252    -0.36178802    -0.28212981
      5      O     1.96092944     0.77443749    -0.08570157
      6      H    -0.70351327     1.07918062     0.18865009
      7      H    -1.90918801    -0.32443765    -0.02093190
      8      H     2.29368084    -1.17599760    -0.46718771
      9     Ti     2.34950483     6.07165484     2.05058921
     10     Cl     2.21482211     4.05180528     1.25013496
     11     Cl     2.05262828     6.02281948     4.21596242
     12     Cl     0.81104852     7.32570109     1.13271650
     13     Cl     4.32389237     6.89143729     1.60154585
 
Total System Charge             0.00000
 
 *** GOStep11 ***

 Energy gradients wrt nuclear displacements
 ==========================================

     Atom      Cartesian (a.u./angstrom)
                 X         Y         Z
 ----------------------------------------
     1 H     0.000081 -0.000069 -0.001476
     2 C     0.000434 -0.001828 -0.000536
     3 C     0.000878  0.001151  0.005458
     4 C    -0.000986 -0.008096 -0.009374
     5 O     0.003846  0.004533  0.003207
     6 H     0.000452  0.000212 -0.000102
     7 H    -0.000688  0.000086 -0.000426
     8 H    -0.003791  0.005632  0.003900
     9 Ti   -0.000032  0.001518  0.000842
    10 Cl    0.000187 -0.001659 -0.000845
    11 Cl    0.000197  0.000052 -0.001278
    12 Cl    0.000806 -0.000628  0.000488
    13 Cl   -0.001384 -0.000904  0.000141
 ----------------------------------------
 Mulliken charges used for AMS results%charges...

 dE(predicted):    -0.27163E-03, dE(actual):    -0.26854E-03, Trust radius:    1.000000, all in a.u.
 
----------------------------------------------------------------------
Geometry Convergence after Step  11       (Hartree/Angstrom,Angstrom)
----------------------------------------------------------------------
current energy                               -2.45392966 Hartree
energy change                      -0.00026854     0.00013000    F
constrained gradient max            0.00936896     0.00100000    F
constrained gradient rms            0.00283001     0.00066667    F
gradient max                        0.00936896
gradient rms                        0.00283001
cart. step max                      0.11297074     0.01000000    F
cart. step rms                      0.04694159     0.00666667    F
 
 
--------
Geometry
--------
Formula: C3H4Cl4OTi
Atoms
  Index Symbol   x (angstrom)   y (angstrom)   z (angstrom)
      1      H    -0.09148225    -1.86321315    -0.46766913
      2      C    -0.85477084     0.05530052     0.00238437
      3      C     0.12806996    -0.81439698    -0.26540726
      4      C     1.56312539    -0.43854015    -0.32257139
      5      O     2.00967201     0.68428989    -0.16725695
      6      H    -0.62805854     1.09967426     0.20399965
      7      H    -1.89727122    -0.25191337     0.03053399
      8      H     2.25386476    -1.28896834    -0.51364637
      9     Ti     2.34035133     6.10785357     2.06575215
     10     Cl     2.28373359     4.08325752     1.25931413
     11     Cl     2.00115631     6.04913867     4.22556951
     12     Cl     0.78591615     7.32142588     1.11865300
     13     Cl     4.30061557     6.98267357     1.65728196
 
Total System Charge             0.00000
 
 *** GOStep12 ***

 Energy gradients wrt nuclear displacements
 ==========================================

     Atom      Cartesian (a.u./angstrom)
                 X         Y         Z
 ----------------------------------------
     1 H     0.000996 -0.000290 -0.000878
     2 C     0.000444 -0.001172 -0.000879
     3 C     0.000758  0.001989  0.003151
     4 C    -0.002174 -0.005098 -0.004194
     5 O     0.002340  0.002225  0.001170
     6 H     0.000390  0.000196  0.000377
     7 H    -0.000872  0.000029 -0.000190
     8 H    -0.001710  0.003356  0.001946
     9 Ti   -0.000310  0.001984  0.001074
    10 Cl    0.000445 -0.002549 -0.001226
    11 Cl    0.000082  0.000120 -0.000477
    12 Cl    0.000250 -0.000044  0.000217
    13 Cl   -0.000640 -0.000746 -0.000092
 ----------------------------------------
 Mulliken charges used for AMS results%charges...

 dE(predicted):    -0.17534E-03, dE(actual):    -0.25170E-03, Trust radius:    1.000000, all in a.u.
 
----------------------------------------------------------------------
Geometry Convergence after Step  12       (Hartree/Angstrom,Angstrom)
----------------------------------------------------------------------
current energy                               -2.45418136 Hartree
energy change                      -0.00025170     0.00013000    F
constrained gradient max            0.00509897     0.00100000    F
constrained gradient rms            0.00169898     0.00066667    F
gradient max                        0.00509897
gradient rms                        0.00169898
cart. step max                      0.17733236     0.01000000    F
cart. step rms                      0.07572289     0.00666667    F
 
 
--------
Geometry
--------
Formula: C3H4Cl4OTi
Atoms
  Index Symbol   x (angstrom)   y (angstrom)   z (angstrom)
      1      H    -0.19192452    -1.87120223    -0.45025568
      2      C    -0.80732632     0.10155568     0.03291128
      3      C     0.09972623    -0.83594661    -0.27118206
      4      C     1.55494097    -0.56000965    -0.38822323
      5      O     2.08024540     0.53678728    -0.29956558
      6      H    -0.50240832     1.12981861     0.21211030
      7      H    -1.86396312    -0.13742623     0.12192226
      8      H     2.17804222    -1.46630070    -0.58317302
      9     Ti     2.32657406     6.16474544     2.09017163
     10     Cl     2.39517348     4.13688345     1.28237377
     11     Cl     1.92049785     6.08939922     4.23784965
     12     Cl     0.74902098     7.30825568     1.09559435
     13     Cl     4.25632331     7.13002193     1.74640401
 
Total System Charge             0.00000
 
 *** GOStep13 ***

 Energy gradients wrt nuclear displacements
 ==========================================

     Atom      Cartesian (a.u./angstrom)
                 X         Y         Z
 ----------------------------------------
     1 H     0.002293 -0.000608 -0.001463
     2 C     0.000843  0.000548 -0.001470
     3 C    -0.002221  0.000957  0.001281
     4 C    -0.004347 -0.005097  0.002070
     5 O     0.003398  0.005669 -0.000739
     6 H     0.000069  0.000227  0.000241
     7 H    -0.000279 -0.000412  0.000812
     8 H     0.000342 -0.000854 -0.000603
     9 Ti   -0.000707  0.002849  0.001296
    10 Cl    0.000844 -0.003042 -0.001352
    11 Cl    0.000011  0.000203 -0.000145
    12 Cl    0.000051  0.000258  0.000199
    13 Cl   -0.000298 -0.000697 -0.000127
 ----------------------------------------
 Mulliken charges used for AMS results%charges...
 Rebuilding optimization coordinates

 dE(predicted):    -0.17652E-03, dE(actual):    -0.11797E-03, Trust radius:    1.000000, all in a.u.
 
----------------------------------------------------------------------
Geometry Convergence after Step  13       (Hartree/Angstrom,Angstrom)
----------------------------------------------------------------------
current energy                               -2.45429933 Hartree
energy change                      -0.00011797     0.00013000    T
constrained gradient max            0.00566520     0.00100000    F
constrained gradient rms            0.00187363     0.00066667    F
gradient max                        0.00566520
gradient rms                        0.00187363
cart. step max                      0.02035767     0.01000000    F
cart. step rms                      0.00801531     0.00666667    F
 
 
--------
Geometry
--------
Formula: C3H4Cl4OTi
Atoms
  Index Symbol   x (angstrom)   y (angstrom)   z (angstrom)
      1      H    -0.19728587    -1.87660263    -0.44212212
      2      C    -0.80621617     0.10141609     0.02475865
      3      C     0.09865427    -0.84095287    -0.27340327
      4      C     1.55578151    -0.56838743    -0.38451794
      5      O     2.07347027     0.52757583    -0.29610606
      6      H    -0.49818654     1.12933135     0.19955636
      7      H    -1.86495468    -0.13108514     0.10264584
      8      H     2.18044755    -1.47495543    -0.57502702
      9     Ti     2.33031314     6.17077573     2.09342207
     10     Cl     2.38885866     4.14359529     1.28657997
     11     Cl     1.94085552     6.09241268     4.24406641
     12     Cl     0.74035079     7.30756638     1.11120461
     13     Cl     4.25283377     7.14589203     1.73588017
 
Total System Charge             0.00000
 
 *** GOStep14 ***

 Energy gradients wrt nuclear displacements
 ==========================================

     Atom      Cartesian (a.u./angstrom)
                 X         Y         Z
 ----------------------------------------
     1 H     0.002142 -0.000512 -0.000522
     2 C    -0.000052  0.001184  0.000415
     3 C    -0.001010  0.001436 -0.000484
     4 C     0.001979  0.002775  0.002533
     5 O    -0.003133 -0.003549 -0.001250
     6 H    -0.000025  0.000054  0.000179
     7 H    -0.000185 -0.000059 -0.000042
     8 H     0.000386 -0.000871 -0.000696
     9 Ti   -0.000118  0.002156  0.000897
    10 Cl    0.000365 -0.002410 -0.001013
    11 Cl   -0.000014  0.000111 -0.000146
    12 Cl    0.000038  0.000105  0.000138
    13 Cl   -0.000373 -0.000421 -0.000008
 ----------------------------------------
 Mulliken charges used for AMS results%charges...

 dE(predicted):    -0.40352E-04, dE(actual):    -0.35127E-04, Trust radius:    1.000000, all in a.u.
 
----------------------------------------------------------------------
Geometry Convergence after Step  14       (Hartree/Angstrom,Angstrom)
----------------------------------------------------------------------
current energy                               -2.45433446 Hartree
energy change                      -0.00003513     0.00013000    T
constrained gradient max            0.00355341     0.00100000    F
constrained gradient rms            0.00130381     0.00066667    F
gradient max                        0.00355341
gradient rms                        0.00130381
cart. step max                      0.02952983     0.01000000    F
cart. step rms                      0.01459577     0.00666667    F
 
 
--------
Geometry
--------
Formula: C3H4Cl4OTi
Atoms
  Index Symbol   x (angstrom)   y (angstrom)   z (angstrom)
      1      H    -0.21570063    -1.87818607    -0.43059280
      2      C    -0.79844653     0.10775599     0.03080544
      3      C     0.09331059    -0.84474509    -0.27210847
      4      C     1.55279397    -0.58742642    -0.40294508
      5      O     2.09915547     0.50011428    -0.32107561
      6      H    -0.47835998     1.13362599     0.19536252
      7      H    -1.85761087    -0.11526891     0.12635555
      8      H     2.16133194    -1.50448525    -0.59329370
      9     Ti     2.32807045     6.18150705     2.09812564
     10     Cl     2.40244787     4.15675752     1.28951093
     11     Cl     1.92131766     6.09859102     4.24538122
     12     Cl     0.73923273     7.30913395     1.10375262
     13     Cl     4.24737955     7.16920782     1.75765942
 
Total System Charge             0.00000
 
 *** GOStep15 ***

 Energy gradients wrt nuclear displacements
 ==========================================

     Atom      Cartesian (a.u./angstrom)
                 X         Y         Z
 ----------------------------------------
     1 H     0.001401 -0.000574 -0.000499
     2 C     0.000447  0.000334 -0.000320
     3 C    -0.003482 -0.000983  0.000324
     4 C    -0.005104 -0.003802  0.000408
     5 O     0.006070  0.006536 -0.000152
     6 H     0.000081 -0.000106  0.000253
     7 H     0.000123 -0.000241  0.000093
     8 H     0.000565 -0.000720  0.000043
     9 Ti   -0.000025  0.001454  0.000665
    10 Cl    0.000249 -0.001728 -0.000782
    11 Cl   -0.000011  0.000125 -0.000159
    12 Cl    0.000039  0.000042  0.000105
    13 Cl   -0.000352 -0.000337  0.000019
 ----------------------------------------
 Mulliken charges used for AMS results%charges...

 dE(predicted):    -0.38268E-04, dE(actual):    -0.28855E-05, Trust radius:    0.040887, all in a.u.
 
----------------------------------------------------------------------
Geometry Convergence after Step  15       (Hartree/Angstrom,Angstrom)
----------------------------------------------------------------------
current energy                               -2.45433735 Hartree
energy change                      -0.00000289     0.00013000    T
constrained gradient max            0.00653318     0.00100000    F
constrained gradient rms            0.00192100     0.00066667    F
gradient max                        0.00653318
gradient rms                        0.00192100
cart. step max                      0.00897218     0.01000000    T
cart. step rms                      0.00393601     0.00666667    T
 
 
--------
Geometry
--------
Formula: C3H4Cl4OTi
Atoms
  Index Symbol   x (angstrom)   y (angstrom)   z (angstrom)
      1      H    -0.21911805    -1.88050120    -0.42724202
      2      C    -0.79706574     0.10821259     0.02540211
      3      C     0.09329521    -0.84766438    -0.27200899
      4      C     1.55313104    -0.59275548    -0.40106229
      5      O     2.09303408     0.49527113    -0.31954010
      6      H    -0.47522873     1.13405706     0.18657782
      7      H    -1.85674594    -0.11246325     0.12052555
      8      H     2.16262628    -1.50926055    -0.59058311
      9     Ti     2.32941279     6.18485342     2.09997449
     10     Cl     2.40048002     4.16021372     1.29213356
     11     Cl     1.93028984     6.10056830     4.24855705
     12     Cl     0.73521666     7.30936407     1.11090784
     13     Cl     4.24559477     7.17668644     1.75329577
 
Total System Charge             0.00000
 
 *** GOStep16 ***

 Energy gradients wrt nuclear displacements
 ==========================================

     Atom      Cartesian (a.u./angstrom)
                 X         Y         Z
 ----------------------------------------
     1 H     0.001317 -0.000373 -0.000489
     2 C     0.000122  0.000752 -0.000364
     3 C    -0.002218 -0.000201  0.000191
     4 C    -0.000971  0.000120  0.000889
     5 O     0.001329  0.001070 -0.000472
     6 H     0.000055 -0.000088  0.000257
     7 H     0.000132 -0.000245  0.000199
     8 H     0.000330 -0.000604 -0.000075
     9 Ti    0.000126  0.001209  0.000502
    10 Cl    0.000082 -0.001446 -0.000617
    11 Cl   -0.000005  0.000075 -0.000181
    12 Cl    0.000070 -0.000035  0.000096
    13 Cl   -0.000368 -0.000234  0.000063
 ----------------------------------------
 Mulliken charges used for AMS results%charges...

 dE(predicted):    -0.27643E-04, dE(actual):    -0.33844E-04, Trust radius:    0.081774, all in a.u.
 
----------------------------------------------------------------------
Geometry Convergence after Step  16       (Hartree/Angstrom,Angstrom)
----------------------------------------------------------------------
current energy                               -2.45437119 Hartree
energy change                      -0.00003384     0.00013000    T
constrained gradient max            0.00222453     0.00100000    F
constrained gradient rms            0.00067609     0.00066667    F
gradient max                        0.00222453
gradient rms                        0.00067609
cart. step max                      0.01508143     0.01000000    F
cart. step rms                      0.00675670     0.00666667    F
 
 
--------
Geometry
--------
Formula: C3H4Cl4OTi
Atoms
  Index Symbol   x (angstrom)   y (angstrom)   z (angstrom)
      1      H    -0.22881587    -1.88418214    -0.41783470
      2      C    -0.79278656     0.10979630     0.02205711
      3      C     0.09203872    -0.85288924    -0.27016076
      4      C     1.55260085    -0.60529765    -0.40437326
      5      O     2.09392829     0.48109614    -0.32505375
      6      H    -0.46539336     1.13495668     0.17618418
      7      H    -1.85403791    -0.10341917     0.11635117
      8      H     2.15816925    -1.52362315    -0.59527736
      9     Ti     2.32995257     6.19255577     2.10376795
     10     Cl     2.40150770     4.16881980     1.29645401
     11     Cl     1.93560601     6.10547460     4.25317456
     12     Cl     0.73006308     7.31152607     1.11770795
     13     Cl     4.24208945     7.19176787     1.75394058
 
Total System Charge             0.00000
 
 *** GOStep17 ***

 Energy gradients wrt nuclear displacements
 ==========================================

     Atom      Cartesian (a.u./angstrom)
                 X         Y         Z
 ----------------------------------------
     1 H     0.000882 -0.000168 -0.000247
     2 C     0.000066  0.000486  0.000017
     3 C    -0.001319  0.000147  0.000057
     4 C     0.001078  0.001520  0.000620
     5 O    -0.000768 -0.001167 -0.000498
     6 H     0.000005 -0.000090  0.000256
     7 H     0.000095 -0.000067 -0.000102
     8 H     0.000049 -0.000301  0.000001
     9 Ti    0.000239  0.000622  0.000212
    10 Cl   -0.000109 -0.000829 -0.000318
    11 Cl    0.000000  0.000014 -0.000143
    12 Cl    0.000071 -0.000101  0.000051
    13 Cl   -0.000287 -0.000066  0.000094
 ----------------------------------------
 Mulliken charges used for AMS results%charges...

 dE(predicted):    -0.17833E-04, dE(actual):    -0.15799E-04, Trust radius:    0.163547, all in a.u.
 
----------------------------------------------------------------------
Geometry Convergence after Step  17       (Hartree/Angstrom,Angstrom)
----------------------------------------------------------------------
current energy                               -2.45438699 Hartree
energy change                      -0.00001580     0.00013000    T
constrained gradient max            0.00151778     0.00100000    F
constrained gradient rms            0.00051989     0.00066667    T
gradient max                        0.00151778
gradient rms                        0.00051989
cart. step max                      0.03015066     0.01000000    F
cart. step rms                      0.01329164     0.00666667    F
 
 
--------
Geometry
--------
Formula: C3H4Cl4OTi
Atoms
  Index Symbol   x (angstrom)   y (angstrom)   z (angstrom)
      1      H    -0.24804706    -1.88831420    -0.40238779
      2      C    -0.78370846     0.11549640     0.01900078
      3      C     0.08852454    -0.86022259    -0.26821989
      4      C     1.55039328    -0.62917992    -0.41553764
      5      O     2.10275929     0.45188422    -0.34184018
      6      H    -0.44453187     1.13890923     0.15867991
      7      H    -1.84605614    -0.08598507     0.12590281
      8      H     2.14496687    -1.55377381    -0.60811693
      9     Ti     2.32881443     6.20610341     2.11046337
     10     Cl     2.41131507     4.18388894     1.30319699
     11     Cl     1.93299496     6.11437467     4.25949101
     12     Cl     0.72267140     7.31453668     1.12272546
     13     Cl     4.23482590     7.21886391     1.76357979
 
Total System Charge             0.00000
 
 *** GOStep18 ***

 Energy gradients wrt nuclear displacements
 ==========================================

     Atom      Cartesian (a.u./angstrom)
                 X         Y         Z
 ----------------------------------------
     1 H     0.000227  0.000061 -0.000219
     2 C    -0.000053  0.000437 -0.000398
     3 C    -0.000450 -0.000025  0.000200
     4 C     0.001723  0.001567  0.000197
     5 O    -0.001355 -0.001657 -0.000331
     6 H     0.000013 -0.000057  0.000252
     7 H     0.000131 -0.000152  0.000146
     8 H    -0.000166  0.000016  0.000193
     9 Ti    0.000241 -0.000069 -0.000104
    10 Cl   -0.000246 -0.000055  0.000032
    11 Cl    0.000005 -0.000038 -0.000068
    12 Cl    0.000056 -0.000140 -0.000003
    13 Cl   -0.000126  0.000112  0.000101
 ----------------------------------------
 Mulliken charges used for AMS results%charges...

 dE(predicted):    -0.17682E-04, dE(actual):    -0.13757E-04, Trust radius:    0.327094, all in a.u.
 
----------------------------------------------------------------------
Geometry Convergence after Step  18       (Hartree/Angstrom,Angstrom)
----------------------------------------------------------------------
current energy                               -2.45440075 Hartree
energy change                      -0.00001376     0.00013000    T
constrained gradient max            0.00171567     0.00100000    F
constrained gradient rms            0.00053701     0.00066667    T
gradient max                        0.00171567
gradient rms                        0.00053701
cart. step max                      0.03138182     0.01000000    F
cart. step rms                      0.01505349     0.00666667    F
 
 
--------
Geometry
--------
Formula: C3H4Cl4OTi
Atoms
  Index Symbol   x (angstrom)   y (angstrom)   z (angstrom)
      1      H    -0.26787052    -1.89152600    -0.38451562
      2      C    -0.77262731     0.12163005     0.02293400
      3      C     0.08474851    -0.86710842    -0.26398922
      4      C     1.54685808    -0.65384773    -0.43098053
      5      O     2.11431028     0.42050241    -0.36373619
      6      H    -0.42009717     1.14242537     0.14803290
      7      H    -1.83690739    -0.06460721     0.13827258
      8      H     2.12777048    -1.58493784    -0.63209309
      9     Ti     2.32594274     6.21945446     2.11710155
     10     Cl     2.42846214     4.19747976     1.31224868
     11     Cl     1.92012995     6.12587279     4.26432063
     12     Cl     0.71718328     7.31606009     1.12027931
     13     Cl     4.22701914     7.24518414     1.77906267
 
Total System Charge             0.00000
 
 *** GOStep19 ***

 Energy gradients wrt nuclear displacements
 ==========================================

     Atom      Cartesian (a.u./angstrom)
                 X         Y         Z
 ----------------------------------------
     1 H    -0.000305  0.000146  0.000042
     2 C     0.000274 -0.000231  0.000181
     3 C     0.000083 -0.000146  0.000022
     4 C     0.000579  0.000518 -0.000191
     5 O    -0.000365 -0.000452 -0.000202
     6 H    -0.000045 -0.000042  0.000142
     7 H     0.000012  0.000039 -0.000264
     8 H    -0.000174  0.000254  0.000272
     9 Ti    0.000021 -0.000412 -0.000254
    10 Cl   -0.000182  0.000275  0.000187
    11 Cl    0.000001 -0.000066  0.000053
    12 Cl    0.000008 -0.000074 -0.000038
    13 Cl    0.000095  0.000191  0.000049
 ----------------------------------------
 Mulliken charges used for AMS results%charges...

 dE(predicted):    -0.88716E-05, dE(actual):    -0.94606E-05, Trust radius:    0.327094, all in a.u.
 
----------------------------------------------------------------------
Geometry Convergence after Step  19       (Hartree/Angstrom,Angstrom)
----------------------------------------------------------------------
current energy                               -2.45441021 Hartree
energy change                      -0.00000946     0.00013000    T
constrained gradient max            0.00057150     0.00100000    T
constrained gradient rms            0.00022792     0.00066667    T
gradient max                        0.00057150
gradient rms                        0.00022792
cart. step max                      0.02255659     0.01000000    F
cart. step rms                      0.01098025     0.00666667    F
 
 
--------
Geometry
--------
Formula: C3H4Cl4OTi
Atoms
  Index Symbol   x (angstrom)   y (angstrom)   z (angstrom)
      1      H    -0.28081644    -1.89341937    -0.37161736
      2      C    -0.76510468     0.12655068     0.02442810
      3      C     0.08205040    -0.87133137    -0.26201078
      4      C     1.54413203    -0.67111726    -0.44293792
      5      O     2.12275765     0.39794582    -0.37896852
      6      H    -0.40355673     1.14570230     0.13676553
      7      H    -1.82917792    -0.05135566     0.15432841
      8      H     2.11504769    -1.60700657    -0.65035179
      9     Ti     2.32358541     6.22877053     2.12208317
     10     Cl     2.44067477     4.20686621     1.31895320
     11     Cl     1.90853693     6.13512315     4.26748873
     12     Cl     0.71479469     7.31799255     1.11730604
     13     Cl     4.22199840     7.26186087     1.79147087
 
Total System Charge             0.00000
 
 *** GOStep20 ***

 Energy gradients wrt nuclear displacements
 ==========================================

     Atom      Cartesian (a.u./angstrom)
                 X         Y         Z
 ----------------------------------------
     1 H    -0.000539  0.000188 -0.000008
     2 C    -0.000012 -0.000010 -0.000109
     3 C     0.000540 -0.000459 -0.000026
     4 C    -0.000278 -0.000220 -0.000193
     5 O     0.000366  0.000392 -0.000073
     6 H     0.000015 -0.000016  0.000060
     7 H    -0.000001 -0.000095  0.000061
     8 H    -0.000037  0.000267  0.000279
     9 Ti   -0.000130 -0.000494 -0.000248
    10 Cl   -0.000089  0.000383  0.000211
    11 Cl   -0.000000 -0.000053  0.000056
    12 Cl    0.000014 -0.000041 -0.000022
    13 Cl    0.000151  0.000158  0.000011
 ----------------------------------------
 Mulliken charges used for AMS results%charges...

 dE(predicted):    -0.37310E-05, dE(actual):    -0.41325E-05, Trust radius:    0.327094, all in a.u.
 
----------------------------------------------------------------------
Geometry Convergence after Step  20       (Hartree/Angstrom,Angstrom)
----------------------------------------------------------------------
current energy                               -2.45441434 Hartree
energy change                      -0.00000413     0.00013000    T
constrained gradient max            0.00055028     0.00100000    T
constrained gradient rms            0.00022879     0.00066667    T
gradient max                        0.00055028
gradient rms                        0.00022879
cart. step max                      0.02330954     0.01000000    F
cart. step rms                      0.01123083     0.00666667    F
 
 
--------
Geometry
--------
Formula: C3H4Cl4OTi
Atoms
  Index Symbol   x (angstrom)   y (angstrom)   z (angstrom)
      1      H    -0.29313333    -1.89529670    -0.35889204
      2      C    -0.75702385     0.13158955     0.02707997
      3      C     0.07925900    -0.87561712    -0.25906489
      4      C     1.54109700    -0.68896338    -0.45459651
      5      O     2.13059989     0.37463628    -0.39441317
      6      H    -0.38579443     1.14838957     0.12879504
      7      H    -1.82155413    -0.03596472     0.16668248
      8      H     2.10119275    -1.62963204    -0.67078407
      9     Ti     2.32115793     6.23812097     2.12721100
     10     Cl     2.45446873     4.21561294     1.32689507
     11     Cl     1.89687966     6.14586543     4.27082053
     12     Cl     0.71163148     7.31851856     1.11409258
     13     Cl     4.21614151     7.27932253     1.80311169
 
Total System Charge             0.00000
 
 *** GOStep21 ***

 Energy gradients wrt nuclear displacements
 ==========================================

     Atom      Cartesian (a.u./angstrom)
                 X         Y         Z
 ----------------------------------------
     1 H    -0.000507  0.000149  0.000044
     2 C    -0.000118  0.000052 -0.000087
     3 C     0.000705 -0.000503 -0.000125
     4 C    -0.000846 -0.000647 -0.000010
     5 O     0.000701  0.000951 -0.000054
     6 H     0.000014  0.000001  0.000055
     7 H    -0.000022 -0.000060  0.000049
     8 H     0.000125  0.000114  0.000129
     9 Ti   -0.000241 -0.000369 -0.000153
    10 Cl    0.000039  0.000227  0.000118
    11 Cl   -0.000013 -0.000024  0.000065
    12 Cl   -0.000008  0.000019 -0.000002
    13 Cl    0.000171  0.000091 -0.000028
 ----------------------------------------
 Mulliken charges used for AMS results%charges...

 dE(predicted):    -0.21915E-05, dE(actual):    -0.13557E-05, Trust radius:    0.327094, all in a.u.
 
----------------------------------------------------------------------
Geometry Convergence after Step  21       (Hartree/Angstrom,Angstrom)
----------------------------------------------------------------------
current energy                               -2.45441569 Hartree
energy change                      -0.00000136     0.00013000    T
constrained gradient max            0.00094746     0.00100000    T
constrained gradient rms            0.00031968     0.00066667    T
gradient max                        0.00094746
gradient rms                        0.00031968
cart. step max                      0.04551343     0.01000000    F
cart. step rms                      0.02129899     0.00666667    F
 
 
--------
Geometry
--------
Formula: C3H4Cl4OTi
Atoms
  Index Symbol   x (angstrom)   y (angstrom)   z (angstrom)
      1      H    -0.31577065    -1.89851797    -0.33655206
      2      C    -0.74142096     0.14056641     0.03206080
      3      C     0.07385216    -0.88370080    -0.25436110
      4      C     1.53493216    -0.72323552    -0.47656834
      5      O     2.14512797     0.32912286    -0.42277891
      6      H    -0.35196953     1.15223500     0.11522469
      7      H    -1.80634809    -0.00724618     0.18965553
      8      H     2.07348912    -1.67296878    -0.70917330
      9     Ti     2.31714916     6.25661655     2.13706160
     10     Cl     2.47905658     4.23341430     1.34155902
     11     Cl     1.87539709     6.16668533     4.27707749
     12     Cl     0.70628715     7.32010082     1.10833980
     13     Cl     4.20514006     7.31350987     1.82539247
 
Total System Charge             0.00000
 
 *** GOStep22 ***

 Energy gradients wrt nuclear displacements
 ==========================================

     Atom      Cartesian (a.u./angstrom)
                 X         Y         Z
 ----------------------------------------
     1 H    -0.000302  0.000055  0.000166
     2 C    -0.000226  0.000130 -0.000117
     3 C     0.000627 -0.000413 -0.000279
     4 C    -0.001329 -0.000816  0.000319
     5 O     0.000928  0.001299 -0.000038
     6 H    -0.000002 -0.000003  0.000084
     7 H    -0.000020  0.000005  0.000033
     8 H     0.000357 -0.000167 -0.000144
     9 Ti   -0.000293 -0.000124  0.000049
    10 Cl    0.000218 -0.000052 -0.000063
    11 Cl   -0.000034  0.000037  0.000040
    12 Cl   -0.000047  0.000084  0.000023
    13 Cl    0.000123 -0.000035 -0.000073
 ----------------------------------------
 Mulliken charges used for AMS results%charges...

 dE(predicted):    -0.40819E-05, dE(actual):     0.30967E-05, Trust radius:    0.064179, all in a.u.
 
----------------------------------------------------------------------
Geometry Convergence after Step  22       (Hartree/Angstrom,Angstrom)
----------------------------------------------------------------------
current energy                               -2.45441260 Hartree
energy change                       0.00000310     0.00013000    T
constrained gradient max            0.00133710     0.00100000    F
constrained gradient rms            0.00040217     0.00066667    T
gradient max                        0.00133710
gradient rms                        0.00040217
cart. step max                      0.01244449     0.01000000    F
cart. step rms                      0.00521504     0.00666667    T
 
 
--------
Geometry
--------
Formula: C3H4Cl4OTi
Atoms
  Index Symbol   x (angstrom)   y (angstrom)   z (angstrom)
      1      H    -0.32035486    -1.90019187    -0.33267556
      2      C    -0.73783457     0.14169351     0.03312067
      3      C     0.07245715    -0.88635986    -0.25367460
      4      C     1.53357581    -0.73257548    -0.48148092
      5      O     2.14845162     0.31667837    -0.42827452
      6      H    -0.34435329     1.15212342     0.11228908
      7      H    -1.80290974    -0.00129263     0.19398544
      8      H     2.06629314    -1.68454331    -0.71884897
      9     Ti     2.31677295     6.26271651     2.13985588
     10     Cl     2.48185492     4.23952098     1.34432406
     11     Cl     1.87171983     6.17304007     4.27909309
     12     Cl     0.70585832     7.32349995     1.10851794
     13     Cl     4.20339096     7.32227221     1.83070608
 
Total System Charge             0.00000
 
 *** GOStep23 ***

 Energy gradients wrt nuclear displacements
 ==========================================

     Atom      Cartesian (a.u./angstrom)
                 X         Y         Z
 ----------------------------------------
     1 H    -0.000035 -0.000011  0.000149
     2 C    -0.000192  0.000131 -0.000004
     3 C     0.000316 -0.000139 -0.000311
     4 C    -0.000629 -0.000333  0.000470
     5 O     0.000294  0.000581 -0.000096
     6 H    -0.000061  0.000014  0.000052
     7 H     0.000000  0.000063 -0.000006
     8 H     0.000326 -0.000245 -0.000242
     9 Ti   -0.000139 -0.000011  0.000136
    10 Cl    0.000198 -0.000091 -0.000109
    11 Cl   -0.000037  0.000060 -0.000004
    12 Cl   -0.000052  0.000062  0.000020
    13 Cl    0.000009 -0.000080 -0.000054
 ----------------------------------------
 Mulliken charges used for AMS results%charges...
 
----------------------------------------------------------------------
Geometry Convergence after Step  23       (Hartree/Angstrom,Angstrom)
----------------------------------------------------------------------
current energy                               -2.45441249 Hartree
energy change                       0.00000011     0.00013000    T
constrained gradient max            0.00063567     0.00100000    T
constrained gradient rms            0.00021523     0.00066667    T
gradient max                        0.00063567
gradient rms                        0.00021523
cart. step max                      0.01179512     0.01000000    F
cart. step rms                      0.00494525     0.00666667    T
 
 
--------
Geometry
--------
Formula: C3H4Cl4OTi
Atoms
  Index Symbol   x (angstrom)   y (angstrom)   z (angstrom)
      1      H    -0.32437863    -1.90236493    -0.32962981
      2      C    -0.73471998     0.14168816     0.03401256
      3      C     0.07126528    -0.88944451    -0.25317431
      4      C     1.53226625    -0.74118799    -0.48654185
      5      O     2.15193182     0.30488325    -0.43249719
      6      H    -0.33782771     1.15109522     0.10920466
      7      H    -1.79974544     0.00254599     0.19846852
      8      H     2.05938589    -1.69500651    -0.72857905
      9     Ti     2.31666358     6.26940677     2.14253394
     10     Cl     2.48158644     4.24600579     1.34727758
     11     Cl     1.86871283     6.17986038     4.28113836
     12     Cl     0.70672365     7.32929074     1.10875864
     13     Cl     4.20305823     7.32980952     1.83596563
 
Total System Charge             0.00000
 
 *** GOStep24 ***

 Energy gradients wrt nuclear displacements
 ==========================================

     Atom      Cartesian (a.u./angstrom)
                 X         Y         Z
 ----------------------------------------
     1 H     0.000132 -0.000051  0.000095
     2 C    -0.000051 -0.000019  0.000006
     3 C    -0.000056  0.000098 -0.000147
     4 C    -0.000089  0.000136  0.000319
     5 O    -0.000064 -0.000036 -0.000069
     6 H    -0.000074  0.000022 -0.000003
     7 H     0.000017  0.000064 -0.000016
     8 H     0.000197 -0.000188 -0.000188
     9 Ti    0.000036  0.000018  0.000144
    10 Cl    0.000129 -0.000066 -0.000103
    11 Cl   -0.000037  0.000057 -0.000008
    12 Cl   -0.000070  0.000040 -0.000006
    13 Cl   -0.000070 -0.000076 -0.000024
 ----------------------------------------
 Mulliken charges used for AMS results%charges...
 
---------------------------------------------------------
Geometry Convergence after Step  24       ** CONVERGED **
---------------------------------------------------------
current energy                               -2.45441225 Hartree
energy change                       0.00000024     0.00013000    T
constrained gradient max            0.00032034     0.00100000    T
constrained gradient rms            0.00010138     0.00066667    T
gradient max                        0.00032034
gradient rms                        0.00010138
cart. step max                      0.00619916     0.01000000    T
cart. step rms                      0.00226137     0.00666667    T
 
Geometry optimization converged

Optimized geometry:
 
--------
Geometry
--------
Formula: C3H4Cl4OTi
Atoms
  Index Symbol   x (angstrom)   y (angstrom)   z (angstrom)
      1      H    -0.32437863    -1.90236493    -0.32962981
      2      C    -0.73471998     0.14168816     0.03401256
      3      C     0.07126528    -0.88944451    -0.25317431
      4      C     1.53226625    -0.74118799    -0.48654185
      5      O     2.15193182     0.30488325    -0.43249719
      6      H    -0.33782771     1.15109522     0.10920466
      7      H    -1.79974544     0.00254599     0.19846852
      8      H     2.05938589    -1.69500651    -0.72857905
      9     Ti     2.31666358     6.26940677     2.14253394
     10     Cl     2.48158644     4.24600579     1.34727758
     11     Cl     1.86871283     6.17986038     4.28113836
     12     Cl     0.70672365     7.32929074     1.10875864
     13     Cl     4.20305823     7.32980952     1.83596563
 
Total System Charge             0.00000
 
Performing a single point calculation on the final geometry ...

 *** adf ***



 ===========================
 A T T A C H E D   F I L E S
 ===========================
  
 Restart
 /scratch/3981/amstmp_36.achiral_catalyst.H_H_TiCl4.Rsub_cat_complex_kid0.108694
 970/GOStep24.rkf*** GOStep24 ***



 ===============================
 M O D E L   P A R A M E T E R S
 ===============================
  
 DENSITY FUNCTIONAL POTENTIAL (scf)
    LDA:                               Exchange only                           == Not Default ==
    Gradient Corrections:              OPTX LYP                                == Not Default ==

 SPIN  (restricted / unrestr.)
    Molecule:                          Restricted                               
    Fragments:                         Restricted                               

 OTHER ASPECTS
    Relativistic Corrections:          scalar (ZORA,MAPA)                       

    Nuclear Charge Density Model:      Point Charge Nuclei                      
    Core Treatment:                    Frozen Orbital(s)                        

    Hyperfine or Zeeman Interaction:   ---                                      



 ===============
 G E O M E T R Y  ***  3D  Molecule  ***
 ===============
  

 ATOMS
 =====                            X Y Z                    CHARGE
                                (Angstrom)             Nucl     +Core       At.Mass
                       --------------------------    ----------------       -------
    1  H              -0.3244   -1.9024   -0.3296      1.00      1.00        1.0078
    2  C              -0.7347    0.1417    0.0340      6.00      6.00       12.0000
    3  C               0.0713   -0.8894   -0.2532      6.00      6.00       12.0000
    4  C               1.5323   -0.7412   -0.4865      6.00      6.00       12.0000
    5  O               2.1519    0.3049   -0.4325      8.00      8.00       15.9949
    6  H              -0.3378    1.1511    0.1092      1.00      1.00        1.0078
    7  H              -1.7997    0.0025    0.1985      1.00      1.00        1.0078
    8  H               2.0594   -1.6950   -0.7286      1.00      1.00        1.0078
    9  Ti              2.3167    6.2694    2.1425     22.00     22.00       47.9479
   10  Cl              2.4816    4.2460    1.3473     17.00     17.00       34.9689
   11  Cl              1.8687    6.1799    4.2811     17.00     17.00       34.9689
   12  Cl              0.7067    7.3293    1.1088     17.00     17.00       34.9689
   13  Cl              4.2031    7.3298    1.8360     17.00     17.00       34.9689


 FRAGMENTS
 =========                                     Atoms in this Fragment     Cart. coord.s (Angstrom)
                                               -------------------------------------------------------
    1  H                                                 1  H           -0.3244   -1.9024   -0.3296
    2  H                                                 6  H           -0.3378    1.1511    0.1092
    3  H                                                 7  H           -1.7997    0.0025    0.1985
    4  H                                                 8  H            2.0594   -1.6950   -0.7286
    5  C                                                 2  C           -0.7347    0.1417    0.0340
    6  C                                                 3  C            0.0713   -0.8894   -0.2532
    7  C                                                 4  C            1.5323   -0.7412   -0.4865
    8  O                                                 5  O            2.1519    0.3049   -0.4325
    9  Ti                                                9  Ti           2.3167    6.2694    2.1425
   10  Cl                                               10  Cl           2.4816    4.2460    1.3473
   11  Cl                                               11  Cl           1.8687    6.1799    4.2811
   12  Cl                                               12  Cl           0.7067    7.3293    1.1088
   13  Cl                                               13  Cl           4.2031    7.3298    1.8360


 Interatomic Distance Matrix (Angstrom)
 --------------------------------------

   1)     0.000
   2)     2.116   0.000
   3)     1.090   1.340   0.000
   4)     2.195   2.488   1.487   0.000
   5)     3.319   2.929   2.406   1.217   0.000
   6)     3.085   1.087   2.112   2.726   2.685   0.000
   7)     2.467   1.087   2.121   3.482   4.013   1.861   0.000
   8)     2.426   3.430   2.197   1.116   2.024   3.814   4.317   0.000
   9)     8.937   7.163   7.876   7.528   6.499   6.114   7.746   8.470   0.000
  10)     6.963   5.377   5.894   5.398   4.337   4.366   6.136   6.307   2.180   0.000
  11)     9.560   7.828   8.589   8.411   7.538   6.897   8.263   9.335   2.187   3.567
          0.000
  12)     9.400   7.409   8.355   8.268   7.335   6.345   7.797   9.308   2.187   3.566
          3.569   0.000
  13)    10.508   8.905   9.434   8.813   7.662   7.860   9.613   9.624   2.186   3.565
          3.571   3.571   0.000

 Min. Distance =    1.0866
 Max. Distance =   10.5081



 =====================================
 S Y M M E T R Y ,   E L E C T R O N S
 =====================================
  
 Symmetry: NOSYM

 Irreducible Representations, including subspecies
 -------------------------------------------------
 A


 Configuration of Valence Electrons
 ==================================
 ( determined in the SCF procedure )

 Total:   120

 Net Charge: 0 (Nuclei minus Electrons)

 Aufbau principle for MO occupations will be applied through SCF cycle no.      49
 Thereafter, the program will assign electrons to MOs that are spatially
 similar to the occupied MOs in a "reference" cycle ("KeepOrbitals").
 The reference cycle is always the PREVIOUS cycle: it will evolve with
 the SCF procedure.
1
 ***************************************************************************************************



                                      ****************************************
                                      *  B U I L D : (Fragments, Functions)  *
                                      ****************************************
  



 =======
 S F O s  ***  (Symmetrized Fragment Orbitals)  ***
 =======
  
 SFOs are linear combinations of (valence) Fragment Orbitals (FOs), such that the SFOs transform as the
 irreducible representations of the (molecular) symmetry group. Each SFO is therefore characterized by
 an irrep of the molecule and by a few (or only one) generating FOs.
 The SFOs constitute a symmetry-adapted basis for the Fock matrix. The MO eigenvector coefficients in
 this basis provide a direct interpretation of the MOs in terms of Frontier Orbital Theory.

 The SFOs are combined with auxiliary Core Functions (CFs) to ensure orthogonalization on the (frozen)
 Core Orbitals (COs). The Core-orthogonalized SFOs (CSFOs) constitute the true Fock basis.

 The FOs, and hence also the (C)SFOs are combinations of the elementary basis functions (BAS). The basis
 functions that participate in the description of the SFOs depend on the irrep. The indices of the
 involved functions are printed below for each irrep.
 (The complete list of primitive basis functions is printed in another section)

 Total nr. of (C)SFOs (summation over all irreps) :   333

 NOTE: a (C)SFO that is defined as a combination of more than one FO is usually NOT normalized.



                                       === A ===
 Nr. of SFOs :  333
 Cartesian basis functions that participate in this irrep (total number =   375) :
      1     2     3     4     5     6     7     8     9    10
     11    12    13    14    15    16    17    18    19    20
     21    22    23    24    25    26    27    28    29    30
     31    32    33    34    35    36    37    38    39    40
     41    42    43    44    45    46    47    48    49    50
     51    52    53    54    57    60    55    58    61    56
     59    62    63    64    65    66    67    68    69    70
     71    72    73    74    75    76    77    78    79    80
     81    82    83    84    87    90    85    88    91    86
     89    92    93    94    95    96    97    98    99   100
    101   102   103   104   105   106   107   108   109   110
    111   112   113   114   117   120   115   118   121   116
    119   122   123   124   125   126   127   128   129   130
    131   132   133   134   135   136   137   138   139   140
    141   142   143   144   147   150   145   148   151   146
    149   152   153   154   155   156   157   158   159   160
    161   162   163   164   165   166   167   168   169   170
    171   172   179   180   208   209   210   173   176   181
    184   187   211   174   177   182   185   188   212   175
    178   183   186   189   213   190   196   202   191   197
    203   192   198   204   193   199   205   194   200   206
    195   201   207   214   215   216   217   218   219   220
    221   222   223   224   225   226   227   234   235   236
    228   231   237   240   243   229   232   238   241   244
    230   233   239   242   245   246   247   248   249   250
    251   252   253   254   255   256   257   258   259   260
    261   262   263   264   265   272   273   274   266   269
    275   278   281   267   270   276   279   282   268   271
    277   280   283   284   285   286   287   288   289   290
    291   292   293   294   295   296   297   298   299   300
    301   302   303   310   311   312   304   307   313   316
    319   305   308   314   317   320   306   309   315   318
    321   322   323   324   325   326   327   328   329   330
    331   332   333   334   335   336   337   338   339   340
    341   348   349   350   342   345   351   354   357   343
    346   352   355   358   344   347   353   356   359   360
    361   362   363   364   365   366   367   368   369   370
    371   372   373   374   375

    SFO  (index         Fragment          Generating    Expansion in Fragment Orbitals
  indx  incl.CFs)   Occup   Orb.Energy   FragmentType  Coeff.   Orbital     on Fragment
 --------------------------------------------------------------------------------------
     1       1      1.000      -0.238 au  H             1.00      1 S               1
                        (      -6.484 eV)
     2       2       --         0.077 au  H             1.00      2 S               1
                        (       2.096 eV)
     3       3       --         1.521 au  H             1.00      3 S               1
                        (      41.380 eV)
     4       4       --         0.410 au  H             1.00      1 P:x             1
                        (      11.162 eV)
     5       5       --         0.410 au  H             1.00      1 P:y             1
                        (      11.162 eV)
     6       6       --         0.410 au  H             1.00      1 P:z             1
                        (      11.162 eV)
[...]
     7     H      -0.000017  -0.000609   0.004215
     8     H      -0.000965   0.000459  -0.004055
     9    Ti      -0.286175   0.224623  -0.577785
    10    Cl       0.016596  -0.028963   0.023832
    11    Cl      -0.077255  -0.030491   0.471048
    12    Cl       0.394413  -0.261493   0.274220
    13    Cl       0.058561   0.012779   0.022979
 
 Mode:    22      Frequency (cm-1):      477.3376     Intensity (km/mol):      129.3889
 Index  Atom      ---- Displacements (x/y/z) ----
     1     H      -0.001002   0.001861  -0.002501
     2     C      -0.001718   0.000093   0.000754
     3     C      -0.000293   0.001434   0.000864
     4     C       0.001888   0.000270  -0.000142
     5     O       0.000727  -0.000136  -0.000413
     6     H      -0.000575  -0.000299   0.001846
     7     H      -0.002278  -0.001466  -0.003596
     8     H       0.000346  -0.000231  -0.001068
     9    Ti      -0.620183  -0.096158   0.269708
    10    Cl       0.036904  -0.043358  -0.033326
    11    Cl       0.101823   0.019271  -0.347025
    12    Cl       0.210663  -0.112364   0.100787
    13    Cl       0.500792   0.267750  -0.090413
 
 Mode:    23      Frequency (cm-1):      481.2045     Intensity (km/mol):      141.2087
 Index  Atom      ---- Displacements (x/y/z) ----
     1     H       0.004829  -0.002287  -0.001223
     2     C      -0.002673  -0.001433  -0.002890
     3     C       0.001160  -0.000602   0.004501
     4     C       0.001720   0.005260  -0.001253
     5     O      -0.001818   0.003180   0.003945
     6     H      -0.001678  -0.002300   0.008652
     7     H      -0.004179  -0.007436  -0.014424
     8     H      -0.001811   0.004148  -0.016591
     9    Ti       0.007810   0.635535   0.243486
    10    Cl       0.046091  -0.594365  -0.233544
    11    Cl       0.034955  -0.025641  -0.182143
    12    Cl       0.112396  -0.107175   0.060063
    13    Cl      -0.203308  -0.146574   0.020518
 
 Mode:    24      Frequency (cm-1):      531.0013     Intensity (km/mol):        7.8616
 Index  Atom      ---- Displacements (x/y/z) ----
     1     H       0.064953  -0.050839   0.370619
     2     C       0.004450  -0.003508   0.029052
     3     C      -0.022716   0.022098  -0.139885
     4     C      -0.000986   0.000271  -0.014946
     5     O       0.003795  -0.005060   0.032766
     6     H      -0.081198   0.064848  -0.436595
     7     H       0.119015  -0.102279   0.687442
     8     H       0.066382  -0.056469   0.356146
     9    Ti      -0.000045   0.000381   0.000273
    10    Cl       0.000026  -0.000392  -0.000155
    11    Cl       0.000058  -0.000007  -0.000234
    12    Cl       0.000049  -0.000053   0.000029
    13    Cl      -0.000075  -0.000058  -0.000014
 
 Mode:    25      Frequency (cm-1):      665.7500     Intensity (km/mol):        8.2733
 Index  Atom      ---- Displacements (x/y/z) ----
     1     H      -0.028423   0.255283   0.034239
     2     C       0.003399   0.064175   0.008374
     3     C       0.181665   0.178995  -0.001349
     4     C       0.094051  -0.174678  -0.042688
     5     O      -0.184709  -0.041626   0.025323
     6     H      -0.575585   0.274849   0.146916
     7     H       0.062523  -0.545614  -0.104536
     8     H       0.148649  -0.141103  -0.054525
     9    Ti       0.000055  -0.000007  -0.000043
    10    Cl       0.000023   0.000066   0.000028
    11    Cl      -0.000014  -0.000002   0.000049
    12    Cl      -0.000017   0.000014  -0.000008
    13    Cl      -0.000041  -0.000020   0.000009
 
 Mode:    26      Frequency (cm-1):      904.6227     Intensity (km/mol):       57.9759
 Index  Atom      ---- Displacements (x/y/z) ----
     1     H       0.425761  -0.013874  -0.080089
     2     C       0.165548  -0.068209  -0.038230
     3     C       0.173802   0.062832  -0.021984
     4     C      -0.332704   0.134822   0.078069
     5     O      -0.004232  -0.068322  -0.009576
     6     H      -0.053761   0.004760   0.005785
     7     H       0.212255  -0.423816  -0.094441
     8     H      -0.596185  -0.024167   0.107997
     9    Ti      -0.000206  -0.000003   0.000017
    10    Cl       0.000039  -0.000014  -0.000009
    11    Cl       0.000033   0.000008  -0.000045
    12    Cl       0.000101  -0.000042   0.000052
    13    Cl       0.000110   0.000055  -0.000018
 
 Mode:    27      Frequency (cm-1):      989.3137     Intensity (km/mol):       10.9982
 Index  Atom      ---- Displacements (x/y/z) ----
     1     H       0.041431  -0.033035   0.224859
     2     C       0.026922  -0.022644   0.157866
     3     C      -0.009536   0.008139  -0.056274
     4     C      -0.007692   0.006791  -0.044901
     5     O       0.001846  -0.001839   0.011499
     6     H      -0.084711   0.070157  -0.497683
     7     H      -0.133734   0.112657  -0.767589
     8     H       0.032444  -0.028825   0.182888
     9    Ti      -0.000001   0.000095  -0.000043
    10    Cl      -0.000004  -0.000066  -0.000016
    11    Cl      -0.000012  -0.000008   0.000031
    12    Cl       0.000042  -0.000032   0.000035
    13    Cl      -0.000030  -0.000022   0.000009
 
 Mode:    28      Frequency (cm-1):     1001.6715     Intensity (km/mol):       19.6868
 Index  Atom      ---- Displacements (x/y/z) ----
     1     H       0.116702  -0.090749   0.621739
     2     C      -0.008781   0.005647  -0.043945
     3     C      -0.000502   0.002717  -0.009356
     4     C      -0.017775   0.015491  -0.102619
     5     O       0.003713  -0.004587   0.026154
     6     H       0.114944  -0.093081   0.630005
     7     H      -0.029941   0.028719  -0.162253
     8     H       0.061284  -0.056139   0.352005
     9    Ti       0.000010  -0.000122   0.000032
    10    Cl       0.000001   0.000096   0.000024
    11    Cl       0.000009   0.000008  -0.000019
    12    Cl      -0.000051   0.000037  -0.000039
    13    Cl       0.000035   0.000026  -0.000011
 
 Mode:    29      Frequency (cm-1):     1013.2490     Intensity (km/mol):        9.0669
 Index  Atom      ---- Displacements (x/y/z) ----
     1     H      -0.090318   0.081681  -0.584388
     2     C      -0.005530   0.001340  -0.015909
     3     C       0.024725  -0.017441   0.133481
     4     C      -0.029600   0.026218  -0.176631
     5     O       0.005966  -0.006701   0.040589
     6     H      -0.019095   0.018416  -0.169539
     7     H       0.010960   0.000644   0.089681
     8     H       0.127651  -0.114919   0.723216
     9    Ti       0.000000   0.000038  -0.000028
    10    Cl      -0.000002  -0.000020  -0.000004
    11    Cl      -0.000004  -0.000006   0.000022
    12    Cl       0.000017  -0.000015   0.000018
    13    Cl      -0.000012  -0.000009   0.000003
 
 Mode:    30      Frequency (cm-1):     1046.8555     Intensity (km/mol):        3.3783
 Index  Atom      ---- Displacements (x/y/z) ----
     1     H      -0.588658   0.079281   0.113354
     2     C       0.116259   0.042430  -0.014478
     3     C      -0.103173  -0.103254   0.004891
     4     C      -0.021473   0.032328   0.002871
     5     O       0.053088   0.030051  -0.003327
     6     H      -0.416953   0.230525   0.109156
     7     H       0.173213  -0.542056  -0.110101
     8     H       0.089559   0.094608   0.020395
     9    Ti      -0.000046   0.000004  -0.000005
    10    Cl       0.000017  -0.000008  -0.000003
    11    Cl       0.000007   0.000002  -0.000003
    12    Cl       0.000027  -0.000008   0.000015
    13    Cl       0.000017   0.000009  -0.000003
 
 Mode:    31      Frequency (cm-1):     1284.7583     Intensity (km/mol):        3.0579
 Index  Atom      ---- Displacements (x/y/z) ----
     1     H      -0.718988   0.392097   0.181930
     2     C      -0.010160  -0.120003  -0.015323
     3     C       0.047004   0.095827   0.005298
     4     C      -0.002854  -0.000716   0.000240
     5     O       0.005168   0.018197   0.001941
     6     H       0.389734  -0.276138  -0.107010
     7     H      -0.005560  -0.032725  -0.004141
     8     H      -0.151808  -0.075528   0.014924
     9    Ti       0.000050   0.000022   0.000019
    10    Cl      -0.000014  -0.000020  -0.000008
    11    Cl      -0.000004  -0.000003  -0.000010
    12    Cl      -0.000026   0.000005  -0.000012
    13    Cl      -0.000028  -0.000015   0.000003
 
 Mode:    32      Frequency (cm-1):     1390.5451     Intensity (km/mol):        0.4048
 Index  Atom      ---- Displacements (x/y/z) ----
     1     H      -0.037610  -0.039630   0.001235
     2     C       0.017070  -0.002848  -0.003414
     3     C       0.004865  -0.046767  -0.007833
     4     C       0.062501  -0.028135  -0.015561
     5     O       0.003806   0.074159   0.010934
     6     H      -0.251714   0.101960   0.058518
     7     H      -0.014590   0.212765   0.033368
     8     H      -0.761752  -0.526364   0.052504
     9    Ti      -0.000013  -0.000008  -0.000005
    10    Cl       0.000002   0.000008   0.000002
    11    Cl      -0.000000   0.000000   0.000005
    12    Cl       0.000004  -0.000001   0.000002
    13    Cl       0.000010   0.000005  -0.000001
 
 Mode:    33      Frequency (cm-1):     1401.8656     Intensity (km/mol):       34.9520
 Index  Atom      ---- Displacements (x/y/z) ----
     1     H       0.292751  -0.107255  -0.067050
     2     C       0.001051   0.039850   0.005639
     3     C      -0.113375   0.047108   0.026461
     4     C       0.059178  -0.024463  -0.014008
     5     O      -0.003573   0.025660   0.004614
     6     H       0.511489  -0.163571  -0.113165
     7     H       0.094017  -0.686787  -0.114547
     8     H      -0.208689  -0.193666   0.006104
     9    Ti       0.000060  -0.000095  -0.000039
    10    Cl      -0.000020   0.000097   0.000040
    11    Cl      -0.000015  -0.000002   0.000039
    12    Cl      -0.000052   0.000027  -0.000027
    13    Cl       0.000002   0.000006   0.000001
 
 Mode:    34      Frequency (cm-1):     1615.3589     Intensity (km/mol):       73.7305
 Index  Atom      ---- Displacements (x/y/z) ----
     1     H       0.342397   0.057848  -0.052536
     2     C       0.239468  -0.277295  -0.081025
     3     C      -0.298452   0.257296   0.088782
     4     C       0.147249   0.112820  -0.007875
     5     O      -0.069208  -0.100415  -0.003592
     6     H      -0.542972  -0.021205   0.090109
     7     H       0.198443   0.420062   0.025311
     8     H       0.049528   0.031721  -0.004505
     9    Ti       0.000051  -0.000070  -0.000034
    10    Cl      -0.000012   0.000071   0.000030
    11    Cl      -0.000014   0.000001   0.000036
    12    Cl      -0.000039   0.000023  -0.000021
    13    Cl      -0.000004   0.000002   0.000003
 
 Mode:    35      Frequency (cm-1):     1730.7837     Intensity (km/mol):      126.1389
 Index  Atom      ---- Displacements (x/y/z) ----
     1     H       0.362546   0.010385  -0.061633
     2     C       0.087408  -0.121007  -0.032518
     3     C      -0.101236   0.156996   0.040540
     4     C      -0.303428  -0.496003  -0.023494
     5     O       0.194649   0.332415   0.017506
     6     H      -0.208764  -0.041927   0.031263
     7     H       0.076713   0.221001   0.016939
     8     H       0.457758   0.012170  -0.080109
     9    Ti      -0.000103   0.000354   0.000163
    10    Cl       0.000043  -0.000355  -0.000144
    11    Cl       0.000042  -0.000001  -0.000150
    12    Cl       0.000123  -0.000079   0.000066
    13    Cl      -0.000066  -0.000050   0.000003
 
 Mode:    36      Frequency (cm-1):     2824.6684     Intensity (km/mol):      174.4249
 Index  Atom      ---- Displacements (x/y/z) ----
     1     H       0.005186   0.041026   0.004941
     2     C      -0.000210  -0.000103   0.000024
     3     C       0.000349  -0.002564  -0.000425
     4     C      -0.043963   0.067417   0.018260
     5     O       0.001761   0.001959  -0.000003
     6     H       0.000303  -0.006455  -0.000970
     7     H      -0.001760   0.002450   0.000714
     8     H       0.490134  -0.839019  -0.217264
     9    Ti      -0.000005  -0.000035  -0.000015
    10    Cl      -0.000002   0.000032   0.000012
    11    Cl      -0.000001   0.000000   0.000013
    12    Cl      -0.000004   0.000005  -0.000002
    13    Cl       0.000014   0.000009  -0.000002
 
 Mode:    37      Frequency (cm-1):     3100.9528     Intensity (km/mol):        7.3388
 Index  Atom      ---- Displacements (x/y/z) ----
     1     H       0.168327   0.427028   0.032012
     2     C       0.036049  -0.042759  -0.012338
     3     C      -0.017114  -0.032417  -0.001676
     4     C       0.000802  -0.002239  -0.000489
     5     O       0.000072   0.000652   0.000091
     6     H       0.229210   0.565292   0.040925
     7     H      -0.626109  -0.092796   0.095149
     8     H      -0.007537   0.012002   0.003196
     9    Ti       0.000002  -0.000004  -0.000003
    10    Cl      -0.000002   0.000002   0.000001
    11    Cl      -0.000001  -0.000000   0.000002
    12    Cl      -0.000002   0.000001  -0.000001
    13    Cl      -0.000000   0.000000   0.000000
 
 Mode:    38      Frequency (cm-1):     3114.0266     Intensity (km/mol):       11.5040
 Index  Atom      ---- Displacements (x/y/z) ----
     1     H       0.318467   0.810576   0.060985
     2     C      -0.013766   0.034116   0.007246
     3     C      -0.023465  -0.073902  -0.006519
     4     C       0.004057  -0.002097  -0.001046
     5     O      -0.000178  -0.000148   0.000014
     6     H      -0.150256  -0.373504  -0.027294
     7     H       0.251793   0.036846  -0.038295
     8     H      -0.022220   0.027056   0.008148
     9    Ti      -0.000001   0.000013   0.000007
    10    Cl       0.000002  -0.000011  -0.000004
    11    Cl       0.000001  -0.000000  -0.000006
    12    Cl       0.000003  -0.000002   0.000002
    13    Cl      -0.000003  -0.000002   0.000000
 
 Mode:    39      Frequency (cm-1):     3199.1994     Intensity (km/mol):        2.6428
 Index  Atom      ---- Displacements (x/y/z) ----
     1     H       0.035875   0.095664   0.007477
     2     C      -0.079441  -0.059302   0.005301
     3     C      -0.003251  -0.009490  -0.000795
     4     C       0.000258  -0.000263  -0.000084
     5     O       0.000107   0.000282   0.000026
     6     H       0.237578   0.633332   0.049144
     7     H       0.706746   0.089989  -0.109506
     8     H      -0.000333  -0.001133  -0.000141
     9    Ti       0.000000   0.000002   0.000001
    10    Cl      -0.000001  -0.000005  -0.000002
    11    Cl       0.000000  -0.000000  -0.000001
    12    Cl       0.000001  -0.000000   0.000000
    13    Cl      -0.000001  -0.000000   0.000000

PES point character: Geometry corresponds to a local minimum on the PES.
                     (Hint: Very small negative frequencies do not count towards being a
                     transition state, as they usually indicate noise on a very flat PES. See
                     the PESPointCharacter%NegativeFrequenciesTolerance keyword documentation.)




 ============================
 Statistical Thermal Analysis  ***  ideal gas assumed  ***
 ============================
  
 Pressure:                  1.000000 atm.
 Temperature:             298.150000 K



 Moments of Inertia [amu*bohr^2] and principal axis
 ==================================================

        1885.1449       9548.0611       9834.1684
 ------------------------------------------------
           0.2184         -0.9630          0.1577
           0.9159          0.1465         -0.3737
           0.3368          0.2260          0.9141


 The rotational contribution to the molecular entropy includes
 a term, dependent on the symmetry number sigma. The results 
 reported below were computed using sigma = 1, determined from
 the point group symmetry of the input geometry (NOSYM). 
 If this is not the correct symmetry, try symmetrizing the molecule before
 running the calculation (note: linear molecules should be aligned along one
 of the Cartesian axes).
 Contributions from frequencies below 20 1/cm are not included in vibrational sums.
 Their contributions, if any, are reported separately.


     Temp                                                        Transl      Rotat     Vibrat     Total
     ----                                                        ------      -----     ------     -----

     298.15   Entropy (cal/mol-K):                               42.375     33.537     30.583    106.495
              Nuclear Internal Energy (kcal/mol):                 0.889      0.889     45.434     47.211
              Constant Volume Heat Capacity (cal/mol-K):          2.981      2.981     25.171     31.133
          (c) Constant Volume Heat Capacity (cal/mol-K):          2.981      2.981     26.563     32.524

 Contributions from frequencies below 20 1/cm
 Frequency (1/cm):                                    3.880     3.098     4.315    19.377
 Entropy (cal/mol-K):                                 9.892    10.339     9.681     6.697
 Nuclear Internal Energy (kcal/mol):                  0.593     0.592     0.593     0.593
 Constant Volume Heat Capacity (cal/mol-K):           1.987     1.987     1.987     1.986

       Summary of energy terms
                                                   hartree              eV         kcal/mol           kJ/mol
                                      --------------------     -----------       ----------      -----------
      Energy from Engine:               -2.454412253008863        -66.7880         -1540.17         -6444.06
      Nuclear Internal Energy:           0.075235778794534          2.0473            47.21           197.53
  (c) Nuclear Internal Energy:           0.075784809877964          2.0622            47.56           198.97
      Internal Energy U:                -2.379176474214328        -64.7407         -1492.96         -6246.53
      pV/n = RT:                         0.000944186013486          0.0257             0.59             2.48
      Enthalpy H:                       -2.378232288200842        -64.7150         -1492.36         -6244.05
      -T*S:                             -0.050599155754763         -1.3769           -31.75          -132.85
  (c) -T*S:                             -0.060169191802856         -1.6373           -37.76          -157.97
      Gibbs free energy:                -2.428831443955605        -66.0919         -1524.11         -6376.90
 
 
 
  (c) The properties marked with this symbol have been corrected using 'low vibrational frequency free rotor
      interpolation corrections'. For those terms all positive frequencies are used (also ones below 20 1/cm),
      but the contribution to the partition function of small vibrational frequencies is modified as described
      in the following paper:
      S. Grimme, 'Supramolecular Binding Thermodynamics by Dispersion-Corrected Density Functional Theory'
      (Chem. Eur. J. 2012, 18, 9955-9964)
      Configuration: Dampener Frequency          :   100.000 1/cm
                     Dampener Alpha              :     4.000
                     Averaging Moment of Inertia : 1.000E-44 kg m2

--------------
Atomic charges
--------------
  Index   Atom    Charge
      1      H   -0.2051
      2      C    0.5111
      3      C    0.1669
      4      C    0.6559
      5      O   -0.4834
      6      H   -0.1721
      7      H   -0.2159
      8      H   -0.2580
      9     Ti    0.8956
     10     Cl   -0.2020
     11     Cl   -0.2316
     12     Cl   -0.2325
     13     Cl   -0.2289


Dipole moment vector    (Debye):    -2.14573925   -1.76014396    0.03352207
              magnitude (Debye):     2.77550490


Final PES point is a local minimum. Geometry optimization successful!


AMS application finished. Exiting.
NORMAL TERMINATION
     Total cpu time:   11434.85
  Total system time:     174.32
 Total elapsed time:   23335.09
 WARNING: total elapsed time is much higher than the (CPU+system) time. 
 Make sure the machine is not oversubscribed and has enough memory, SCM_TMPDIR p
 oints to a fast file system, and the network is fast enough.
