

 Parallel Execution: Process Information
 ==============================================================================
 Rank   Node Name                              NodeID   MyNodeRank  NodeMaster
    0   node120                                   0          0          0
    1   node120                                   0          1         -1
    2   node120                                   0          2         -1
    3   node120                                   0          3         -1
 ==============================================================================


May use up to 122928MB of RAM as shared memory on node 0

 *******************************************************************************
 *                                                                             *
 *  --------------------------------                                           *
 *   Amsterdam Modeling Suite (AMS)              2021.102                      *
 *  --------------------------------                                           *
 *                                               r95042 2021-06-07             *
 *                                                                             *
 *                                                                             *
 *                              =================                              *
 *                              |               |                              *
 *                              |     A M S     |                              *
 *                              |               |                              *
 *                              =================                              *
 *                                                                             *
 *                                                                             *
 *   Online information and documentation:  https://www.scm.com/support/       *
 *   E-mail:  support@scm.com   info@scm.com                                   *
 *                                                                             *
 *   Scientific publications using AMS results must be properly referenced     *
 *   See the User Manuals (or the web site) for recommended citations          *
 *   The terms and conditions of the End User License Agreement apply to       *
 *   the use of AMS, https://www.scm.com/license-terms/                        *
 *                                                                             *
 **********************  x86_64_linux_intel / intelmpi  ************************
 
 Licensed to: VU/FEW (+ SARA) / ALGEMEEN / Amsterdam / THE NETHERLANDS
 SCM User ID: u7668
  
 AMS 2021.102  RunTime: Jan27-2022 12:40:16  ShM Nodes: 1  Procs: 4

 AMS jobname: 29.achiral_catalyst.H_Ph_AlF3.TS
 AMS jobid  : 185911828

 Start   directory: /scistor/tc/yhk800/MasterProject/calculations/achiral_catalyst_H_Ph_AlF3/29.achiral_catalyst.H_Ph_AlF3.TS/
 Results directory: /scistor/tc/yhk800/MasterProject/calculations/achiral_catalyst_H_Ph_AlF3/29.achiral_catalyst.H_Ph_AlF3.TS/
 Scratch directory: /scratch/5299/amstmp_29.achiral_catalyst.H_Ph_AlF3.TS_kid0.185911828/


 Communication costs MPI_COMM_WORLD:      0.914 usec per message,   0.0582 usec per 8-byte item
 Communication costs for intra-node:      0.613 usec per message,   0.0066 usec per 8-byte item

 RNG seed: 351483369 1118766337 -1597077735 291208867 2017505518 -1990934432 -1268133687 -647069791



                      ************************************************************************
                      *  ADF 2021.102  RunTime: Jan27-2022 12:40:17  ShM Nodes: 1  Procs: 4  *
                      ************************************************************************
  
       *****************************
       *  TRANSITION STATE SEARCH  *
       *****************************

Optimization Method                    Quasi Newton
Optimization Coordinates               Delocalized Coordinates
Optimize lattice                       F
 
 ------------------------------------------------------
 Convergence criteria (Hartree,Angstrom)
 ------------------------------------------------------
 Maximum gradient               0.001000000000
 Maximum rms gradient           0.000666666667
 Maximum step allowed           0.010000000000
 Maximum rms step allowed       0.006666666667
 Maximum energy change allowe   0.000260000000
 Maximum stress energy allowe   0.000500000000
 
Initial model Hessian                  Automatic Hessian
 
------------------------------------
Quasi-Newton Optimizer Parameters
------------------------------------
Hessian Update Method                  Bofill
Maximum number of steps                  250
First GDIIS cycle                          0
Maximum GDIIS vectors                      0
Trust radius (bohr)                        0.200000
Trust radius varies                        F
Constraints converged at all steps         T
Use projector                              T
 
 Rigid motions settings for: old optimizer
 Atomic rotations (x,y,z):     T T T
 Atomic translations (x,y,z):  T T T
 Tolerance:                   1.000000000000000E-006
 
           1  TSRC entries:
    i   type      a1    a2    a3    a4    coef
    1 Distance     2    10               -1.000
 
--------
Geometry
--------
Formula: C10H11AlF3O
Atoms
  Index Symbol   x (angstrom)   y (angstrom)   z (angstrom)
      1      H     0.19369716    -1.85361092    -0.24516176
      2      C    -0.92057816    -0.12292898     0.28183759
      3      C     0.21368396    -0.77846351    -0.06958517
      4      C     1.52168394    -0.13059856    -0.22805405
      5      O     2.57084417    -0.68022178    -0.54313771
      6      H    -0.93117356     0.95749943     0.37346659
      7      H    -1.16677948    -1.14795174     3.01281369
      8      H    -2.10496465     0.45730942     2.86041604
      9      H    -0.24714630     0.47546451     3.02589233
     10      C    -1.16197426    -0.07675120     2.85297480
     11      C    -4.74611209    -2.17290540     0.36190353
     12      C    -4.64303884    -0.90540134    -0.22468614
     13      C    -3.40885292    -0.24404214    -0.25051686
     14      C    -2.27774025    -0.85018701     0.31024211
     15      C    -2.38081349    -2.11769108     0.89683179
     16      C    -3.61499942    -2.77905027     0.92266250
     17      H    -5.50859650    -0.44156308    -0.65379390
     18      H    -3.32997851     0.72588585    -0.69939096
     19      H    -1.51525584    -2.58152934     1.32593954
     20      H    -3.69387383    -3.74897827     1.37153661
     21      H    -5.69054416    -2.67899514     0.38166988
     22      H     1.51741535     0.92352060    -0.04443873
     23     Al     3.93691787     0.31396217    -0.73139533
     24      F     3.68284030     0.94126791     0.73770115
     25      F     3.25975160     0.99830780    -2.03117580
     26      F     4.86816171    -0.99768922    -0.90071134
 
Total System Charge             0.00000
 
 
----------------
ADF Engine Input
----------------
 
 NumericalQuality VeryGood
 SCF
 Converge 1.0e-6
 Iterations 99
 End
 SYMMETRY NOSYM
 SpinPolarization 1.0
 Unrestricted Yes
 XC
 GGA OLYP
 End
 basis
 core None
 type TZ2P
 End
 

 Title: *** (NO TITLE) ***

 Using automatic Hessian for delocalized coordinates.
 *** GOStep1 ***

 Energy gradients wrt nuclear displacements
 ==========================================

     Atom      Cartesian (a.u./angstrom)
                 X         Y         Z
 ----------------------------------------
     1 H     0.000396 -0.001551  0.000803
     2 C     0.058279  0.033075  0.004595
     3 C    -0.055875  0.013124  0.008609
     4 C     0.109387  0.017708 -0.019709
     5 O     0.127266  0.128733 -0.009893
     6 H     0.000771 -0.004812  0.003077
     7 H    -0.001152 -0.006130 -0.002811
     8 H    -0.001017  0.001336 -0.001195
     9 H    -0.001169 -0.000625 -0.001452
    10 C    -0.004680 -0.005852 -0.013068
    11 C    -0.021706 -0.013629  0.001188
    12 C    -0.024213  0.012476 -0.010431
    13 C     0.011204  0.020334 -0.013105
    14 C    -0.053046 -0.031089  0.002338
    15 C     0.032278  0.006333  0.017650
    16 C    -0.007896 -0.026497  0.012854
    17 H     0.015711 -0.009059  0.008749
    18 H    -0.001105 -0.018297  0.008443
    19 H    -0.012153  0.009181 -0.006464
    20 H     0.000942  0.018138 -0.008961
    21 H     0.017977  0.009311 -0.000760
    22 H     0.000802 -0.038502 -0.005529
    23 Al   -0.060670 -0.001949  0.014166
    24 F    -0.034829 -0.072271 -0.078053
    25 F    -0.006251 -0.072096  0.075541
    26 F    -0.089253  0.032611  0.013417
 ----------------------------------------
 Mulliken charges used for AMS results%charges...
           Primitive Internal Coordinates (atoms in internal order)
-------------------------------------------------------------------------------
    index    type      i       j       k       l   value(A,deg)     TSRC Vect
-------------------------------------------------------------------------------
       1     bnd       1       3       0       0     1.08957265    -0.00000000
       2     bnd       2       6       0       0     1.08435865    -0.00000000
       3     bnd       2      14       0       0     1.54000000     0.00370254
       4     bnd       2       3       0       0     1.35638270    -0.00000000
       5     bnd       3       4       0       0     1.46823204    -0.00000000
       6     bnd       4      22       0       0     1.07000000     0.00000000
       7     bnd       4       5       0       0     1.22560213    -0.00000000
       8     bnd       5      23       0       0     1.70000000    -0.00000000
       9     bnd       8      10       0       0     1.08374674     0.00000000
      10     bnd       7      10       0       0     1.08307071     0.00000000
      11     bnd       9      10       0       0     1.08247534    -0.00000000
      12     bnd      11      21       0       0     1.07166668    -0.00000000
      13     bnd      11      12       0       0     1.40045638    -0.00176246
      14     bnd      12      13       0       0     1.40045639     0.00308292
      15     bnd      13      14       0       0     1.40045639     0.00484538
      16     bnd      14      15       0       0     1.40045639    -0.00774887
      17     bnd      15      19       0       0     1.07166666     0.00000000
      18     bnd      11      16       0       0     1.40045639    -0.00484538
      19     bnd      15      16       0       0     1.40045639    -0.00308292
      20     bnd      16      20       0       0     1.07166668     0.00000000
      21     bnd      12      17       0       0     1.07166668    -0.00000000
      22     bnd      13      18       0       0     1.07166666     0.00000000
      23     bnd       4      23       0       0     2.50685892    -0.00000000
      24     bnd      23      25       0       0     1.61750189    -0.00000000
      25     bnd      23      24       0       0     1.61750189    -0.00000000
      26     bnd      23      26       0       0     1.61750189    -0.00000000
      27     bnd       2      10       0       0     2.58285714    -0.46850046
      28     bnd      10      14       0       0     2.88246877    -0.17165346
      29     bnd      10      15       0       0     3.07855488    -0.03699203
      30     ang       6       2      14       0   117.41061246     0.00855328
      31     ang       6       2       3       0   120.77103538     0.01284013
      32     ang       6       2      10       0    84.09702452    -0.03102288
      33     ang      14       2       3       0   120.89733876    -0.02498808
      34     ang      14       2      10       0    84.70507562     0.08602895
      35     ang       3       2      10       0   110.16403203    -0.03328956
      36     ang       1       3       2       0   120.21909900    -0.00000000
      37     ang       1       3       4       0   115.74474309     0.00000000
      38     ang       2       3       4       0   124.03410402     0.00000000
      39     ang       3       4      22       0   114.37019779     0.00000000
      40     ang       3       4       5       0   126.33327002    -0.00000000
      41     ang       3       4      23       0   163.38119183    -0.00000000
      42     ang      22       4       5       0   119.29637471     0.00000000
      43     ang      22       4      23       0    82.16002634     0.00000000
      44     ang       5       4      23       0    37.17058570     0.00000000
      45     ang       4       5      23       0   117.00680806    -0.00000000
      46     ang       8      10       7       0   118.84988012    -0.00146834
      47     ang       8      10       9       0   118.87311123    -0.00024377
      48     ang       8      10       2       0    95.56458342     0.00909663
      49     ang       8      10      14       0    78.54912471    -0.00567121
      50     ang       8      10      15       0    89.23041841     0.00006763
      51     ang       7      10       9       0   118.99448321     0.00257304
      52     ang       7      10       2       0    97.44889075     0.00885824
      53     ang       7      10      14       0    82.13060339    -0.00242205
      54     ang       7      10      15       0    55.68992698    -0.00719646
      55     ang       9      10       2       0    95.11483796    -0.02038856
      56     ang       9      10      14       0   127.22419637     0.00509499
      57     ang       9      10      15       0   140.74147852     0.00345464
      58     ang       2      10      15       0    52.59994653     0.02406216
      59     ang      21      11      12       0   120.00000003     0.00262141
      60     ang      21      11      16       0   119.99999998     0.00262141
      61     ang      12      11      16       0   119.99999999    -0.00524282
      62     ang      11      12      13       0   120.00000045     0.00283320
      63     ang      11      12      17       0   119.99999992    -0.00141660
      64     ang      13      12      17       0   119.99999963    -0.00141660
      65     ang      12      13      14       0   119.99999956     0.00956415
      66     ang      12      13      18       0   120.00000060    -0.00478207
      67     ang      14      13      18       0   119.99999984    -0.00478207
      68     ang       2      14      13       0   120.00000008     0.05233565
      69     ang       2      14      15       0   119.99999944    -0.02667342
      70     ang       2      14      10       0    63.15528843    -0.11163583
      71     ang      13      14      15       0   120.00000047    -0.02566222
      72     ang      13      14      10       0   123.34795653     0.02510012
      73     ang      15      14      10       0    84.36745140     0.04820738
      74     ang      14      15      19       0   120.00000056    -0.02292897
      75     ang      14      15      16       0   119.99999929     0.02509558
      76     ang      14      15      10       0    68.71481583    -0.05236308
      77     ang      19      15      16       0   120.00000015    -0.00216660
      78     ang      19      15      10       0    73.30633988    -0.00817627
      79     ang      16      15      10       0   130.56157217     0.05252240
      80     ang      11      16      15       0   120.00000024    -0.00658788
      81     ang      11      16      20       0   119.99999995     0.00329394
      82     ang      15      16      20       0   119.99999981     0.00329394
      83     ang       5      23      25       0    89.99999974    -0.00000000
      84     ang       5      23      24       0    90.00000011     0.00000000
      85     ang       5      23      26       0    89.99999973     0.00000000
      86     ang       4      23      25       0    80.38815531    -0.00000000
      87     ang       4      23      24       0    74.63739682     0.00000000
      88     ang       4      23      26       0   115.58815964     0.00000000
      89     ang      25      23      24       0   120.00000066    -0.00000000
      90     ang      25      23      26       0   119.99999967    -0.00000000
      91     ang      24      23      26       0   119.99999967     0.00000000
      92     dih       6       2      14      13    34.24865644    -0.03986035
      93     dih       6       2      14      15   214.24865620    -0.00290824
      94     dih       6       2      14      10   -80.53711813    -0.00962326
      95     dih       3       2      14      13   225.14946408    -0.02037423
      96     dih       3       2      14      15    45.14946384     0.01657788
      97     dih       3       2      14      10   110.36368951     0.00986287
      98     dih      10       2      14      13   114.78577457    -0.03023709
      99     dih      10       2      14      15   -65.21422568     0.00671501
     100     dih       6       2       3       1   185.43025046    -0.01107025
     101     dih       6       2       3       4     5.97435318    -0.01107025
     102     dih      14       2       3       1    -5.83693582    -0.03186770
     103     dih      14       2       3       4   174.70716690    -0.03186770
     104     dih      10       2       3       1    90.20089317     0.04293795
     105     dih      10       2       3       4   -89.25500411     0.04293795
     106     dih       1       3       4      22   180.37552847    -0.00000000
     107     dih       1       3       4       5     0.52197473    -0.00000000
     108     dih       1       3       4      23     6.59180955    -0.00000000
     109     dih       2       3       4      22    -0.14644617     0.00000000
     110     dih       2       3       4       5   180.00000148     0.00000000
     111     dih       2       3       4      23   186.06983491     0.00000000
     112     dih       3       4       5      23   177.13092032    -0.00000000
     113     dih      22       4       5      23    -2.71611828     0.00000000
     114     dih       4       5      23      25   -67.45999877     0.00000000
     115     dih       4       5      23      24    52.54000189     0.00000000
     116     dih       4       5      23      26   172.54000156     0.00000000
     117     dih      21      11      12      13   180.00000000    -0.00260094
     118     dih      21      11      12      17    -0.00000085    -0.00130719
     119     dih      16      11      12      13     0.00000085    -0.00341256
     120     dih      16      11      12      17   179.99999915    -0.00211880
     121     dih      11      12      13      14    -0.00000171    -0.00126139
     122     dih      11      12      13      18   179.99999915     0.00042291
     123     dih      17      12      13      14   180.00000148    -0.00255514
     124     dih      17      12      13      18     0.00000171    -0.00087085
     125     dih      12      13      14       2   180.00000171     0.04828459
     126     dih      12      13      14      15     0.00000171     0.01133248
     127     dih      12      13      14      10   255.86129775    -0.05501212
     128     dih      18      13      14       2     0.00000000     0.04660029
     129     dih      18      13      14      15   180.00000085     0.00964819
     130     dih      18      13      14      10    75.86129736    -0.05669642
     131     dih       2      14      15      19    -0.00000171    -0.04697536
     132     dih       2      14      15      16   179.99999852    -0.05368174
     133     dih       2      14      15      10    54.48589834    -0.09017666
     134     dih      13      14      15      19   179.99999852    -0.01002325
     135     dih      13      14      15      16    -0.00000148    -0.01672964
     136     dih      13      14      15      10   234.48589810    -0.05322455
     137     dih      10      14      15      19   -54.48589835     0.04320130
     138     dih      10      14      15      16   125.51410150     0.03649492
     139     dih      21      11      16      15   179.99999915    -0.00279621
     140     dih      21      11      16      20     0.00000000    -0.00111191
     141     dih      12      11      16      15    -0.00000085    -0.00198460
     142     dih      12      11      16      20   180.00000000    -0.00030030
     143     dih      14      15      16      11     0.00000191     0.01205569
     144     dih      14      15      16      20   180.00000171     0.01037139
     145     dih      19      15      16      11   180.00000226     0.00534931
     146     dih      19      15      16      20     0.00000191     0.00366501
     147     dih      10      15      16      11    86.69956322    -0.01376432
     148     dih      10      15      16      20   266.69956323    -0.01544862
     149     dih       3       4      23       5    -8.10496260    -0.00000000
     150     dih       3       4      23      25   102.38020076    -0.00000000
     151     dih       3       4      23      24   227.30065372    -0.00000000
     152     dih       3       4      23      26   -16.38159301     0.00000000
     153     dih      22       4      23       5   177.60912466     0.00000000
     154     dih      22       4      23      25   -71.90571197    -0.00000000
     155     dih      22       4      23      24    53.01474099     0.00000000
     156     dih      22       4      23      26   169.33249425     0.00000000
     157     dih       5       4      23      25   110.48516337    -0.00000000
     158     dih       5       4      23      24   235.40561632     0.00000000
     159     dih       5       4      23      26    -8.27663041     0.00000000
     160     dih       6       2      10       8    60.32627910     0.00089318
     161     dih       6       2      10       7   180.43650753     0.00294483
     162     dih       6       2      10       9   -59.39742086     0.00302683
     163     dih       6       2      10      14   118.31924202    -0.00069755
     164     dih       6       2      10      15   145.07776256    -0.00204241
     165     dih      14       2      10       8   -57.99296292     0.00159073
     166     dih      14       2      10       7    62.11726551     0.00364238
     167     dih      14       2      10       9   182.28333712     0.00372438
     168     dih      14       2      10      15    26.75852053    -0.00134486
     169     dih       3       2      10       8   180.98682002     0.00004114
     170     dih       3       2      10       7   -58.90295155     0.00209280
     171     dih       3       2      10       9    61.26312006     0.00217480
     172     dih       3       2      10      14   238.97978294    -0.00154958
     173     dih       3       2      10      15   265.73830347    -0.00289445
     174     dih       8      10      14       2   120.55659496     0.00123949
     175     dih       8      10      14      13    10.81460513     0.00197560
     176     dih       8      10      14      15   248.36518556    -0.00848411
     177     dih       7      10      14       2   242.22438904     0.00209558
     178     dih       7      10      14      13   132.48239922     0.00283169
     179     dih       7      10      14      15    10.03297964    -0.00762802
     180     dih       9      10      14       2     2.85653387     0.00494493
     181     dih       9      10      14      13   253.11454404     0.00568104
     182     dih       9      10      14      15   130.66512447    -0.00477867
     183     dih       2      10      14      13   250.25801017     0.00073611
     184     dih       2      10      14      15   127.80859060    -0.00972360
     185     dih      15      10      14       2   232.19140940     0.00972360
     186     dih      15      10      14      13   122.44941957     0.01045971
     187     dih       8      10      15      14    65.66230388    -0.00998150
     188     dih       8      10      15      19   198.27580797     0.00647661
     189     dih       8      10      15      16   -46.23027986     0.00102270
     190     dih       7      10      15      14   192.05953883    -0.00823366
     191     dih       7      10      15      19   -35.32695708     0.00822445
     192     dih       7      10      15      16    80.16695508     0.00277054
     193     dih       9      10      15      14   -72.64127535    -0.01427282
     194     dih       9      10      15      19    59.97222874     0.00218529
     195     dih       9      10      15      16   175.46614091    -0.00326862
     196     dih       2      10      15      14   -31.94269627    -0.01864577
     197     dih       2      10      15      19   100.67080782    -0.00218766
     198     dih       2      10      15      16   216.16471998    -0.00764157
     199     dih      14      10      15      19   132.61350409     0.01645811
     200     dih      14      10      15      16   248.10741625     0.01100420
Hessian eigenvector     1(     0.001) has overlap with TSRC:    0.48781E+00
Hessian eigenvector     2(     0.006) has overlap with TSRC:    0.26266E-01
Hessian eigenvector     3(     0.009) has overlap with TSRC:    0.58121E-03
Hessian eigenvector     4(     0.010) has overlap with TSRC:    0.19024E-01
Hessian eigenvector     5(     0.010) has overlap with TSRC:    0.37349E-02
Hessian eigenvector     6(     0.010) has overlap with TSRC:    0.28897E-02
Hessian eigenvector     7(     0.010) has overlap with TSRC:    0.86546E-02
Hessian eigenvector     8(     0.010) has overlap with TSRC:    0.39917E-02
Hessian eigenvector     9(     0.011) has overlap with TSRC:    0.70058E-02
Hessian eigenvector    10(     0.011) has overlap with TSRC:    0.53699E-03
Hessian eigenvector    11(     0.012) has overlap with TSRC:    0.31212E-04
Hessian eigenvector    12(     0.012) has overlap with TSRC:    0.78497E-03
Hessian eigenvector    13(     0.012) has overlap with TSRC:    0.22917E-01
Hessian eigenvector    14(     0.012) has overlap with TSRC:    0.98975E-02
Hessian eigenvector    15(     0.016) has overlap with TSRC:    0.40341E-05
Hessian eigenvector    16(     0.016) has overlap with TSRC:    0.19029E-02
Hessian eigenvector    17(     0.020) has overlap with TSRC:    0.47236E-01
Hessian eigenvector    18(     0.021) has overlap with TSRC:    0.18743E+00
Hessian eigenvector    19(     0.022) has overlap with TSRC:    0.14055E+00
Hessian eigenvector    20(     0.029) has overlap with TSRC:    0.81207E-02
Hessian eigenvector    21(     0.031) has overlap with TSRC:    0.17463E-01
Hessian eigenvector    22(     0.040) has overlap with TSRC:    0.11416E-01
Hessian eigenvector    23(     0.044) has overlap with TSRC:    0.60891E-01
Hessian eigenvector    24(     0.051) has overlap with TSRC:    0.43258E-01
Hessian eigenvector    25(     0.067) has overlap with TSRC:    0.44498E-01
Hessian eigenvector    26(     0.085) has overlap with TSRC:    0.51898E-01
Hessian eigenvector    27(     0.087) has overlap with TSRC:    0.11876E-01
Hessian eigenvector    28(     0.090) has overlap with TSRC:    0.25171E-01
Hessian eigenvector    29(     0.100) has overlap with TSRC:    0.14398E-02
Hessian eigenvector    30(     0.110) has overlap with TSRC:    0.47841E-10
Hessian eigenvector    31(     0.111) has overlap with TSRC:    0.89469E-09
Hessian eigenvector    32(     0.121) has overlap with TSRC:    0.11800E+00
Hessian eigenvector    33(     0.123) has overlap with TSRC:    0.11570E-01
Hessian eigenvector    34(     0.170) has overlap with TSRC:    0.93153E-01
Hessian eigenvector    35(     0.197) has overlap with TSRC:    0.94893E-10
Hessian eigenvector    36(     0.207) has overlap with TSRC:    0.14400E-10
Hessian eigenvector    37(     0.208) has overlap with TSRC:    0.14248E-10
Hessian eigenvector    38(     0.212) has overlap with TSRC:    0.15516E-11
Hessian eigenvector    39(     0.216) has overlap with TSRC:    0.20131E-07
Hessian eigenvector    40(     0.216) has overlap with TSRC:    0.78129E-11
Hessian eigenvector    41(     0.223) has overlap with TSRC:    0.27707E-10
Hessian eigenvector    42(     0.223) has overlap with TSRC:    0.21770E-10
Hessian eigenvector    43(     0.223) has overlap with TSRC:    0.67246E-10
Hessian eigenvector    44(     0.223) has overlap with TSRC:    0.21574E-10
Hessian eigenvector    45(     0.231) has overlap with TSRC:    0.13540E-07
Hessian eigenvector    46(     0.234) has overlap with TSRC:    0.70934E-10
Hessian eigenvector    47(     0.297) has overlap with TSRC:    0.62310E-10
Hessian eigenvector    48(     0.383) has overlap with TSRC:    0.41860E-02
Hessian eigenvector    49(     0.429) has overlap with TSRC:    0.44727E-02
Hessian eigenvector    50(     0.472) has overlap with TSRC:    0.14300E-10
Hessian eigenvector    51(     0.485) has overlap with TSRC:    0.61093E-02
Hessian eigenvector    52(     0.500) has overlap with TSRC:    0.68840E-14
Hessian eigenvector    53(     0.503) has overlap with TSRC:    0.44451E-14
Hessian eigenvector    54(     0.503) has overlap with TSRC:    0.26231E-14
Hessian eigenvector    55(     0.503) has overlap with TSRC:    0.51252E-14
Hessian eigenvector    56(     0.503) has overlap with TSRC:    0.20057E-14
Hessian eigenvector    57(     0.508) has overlap with TSRC:    0.48218E-02
Hessian eigenvector    58(     0.508) has overlap with TSRC:    0.20609E-14
Hessian eigenvector    59(     0.508) has overlap with TSRC:    0.24012E-14
Hessian eigenvector    60(     0.508) has overlap with TSRC:    0.11400E-13
Hessian eigenvector    61(     0.508) has overlap with TSRC:    0.33407E-14
Hessian eigenvector    62(     0.508) has overlap with TSRC:    0.12009E-13
Hessian eigenvector    63(     0.509) has overlap with TSRC:    0.32219E-14
Hessian eigenvector    64(     0.524) has overlap with TSRC:    0.33227E-14
Hessian eigenvector    65(     0.547) has overlap with TSRC:    0.35850E-11
Hessian eigenvector    66(     0.547) has overlap with TSRC:    0.37420E-14
Hessian eigenvector    67(     0.547) has overlap with TSRC:    0.97131E-10
Hessian eigenvector    68(     0.563) has overlap with TSRC:    0.28164E-14
Hessian eigenvector    69(     0.568) has overlap with TSRC:    0.57558E-11
Hessian eigenvector    70(     0.580) has overlap with TSRC:    0.24300E-14
Hessian eigenvector    71(     0.580) has overlap with TSRC:    0.18835E-14
Hessian eigenvector    72(     0.580) has overlap with TSRC:    0.28399E-14
Hessian eigenvector     1 has the largest overlap with TSRC:  0.48781
           Primitive Internal Coordinates (atoms in internal order)
-------------------------------------------------------------------------------
    index    type      i       j       k       l   value(A,deg)     Max Ovl Vect
-------------------------------------------------------------------------------
       1     bnd       1       3       0       0     1.08957265     0.00000000
       2     bnd       2       6       0       0     1.08435865     0.00000000
       3     bnd       2      14       0       0     1.54000000     0.00504006
       4     bnd       2       3       0       0     1.35638270    -0.00000000
       5     bnd       3       4       0       0     1.46823204    -0.00000000
       6     bnd       4      22       0       0     1.07000000     0.00000000
       7     bnd       4       5       0       0     1.22560213    -0.00000000
       8     bnd       5      23       0       0     1.70000000    -0.00000000
       9     bnd       8      10       0       0     1.08374674    -0.00000000
      10     bnd       7      10       0       0     1.08307071    -0.00000000
      11     bnd       9      10       0       0     1.08247534     0.00000000
      12     bnd      11      21       0       0     1.07166668    -0.00000000
      13     bnd      11      12       0       0     1.40045638     0.00071411
      14     bnd      12      13       0       0     1.40045639     0.00000697
      15     bnd      13      14       0       0     1.40045639    -0.00070715
      16     bnd      14      15       0       0     1.40045639    -0.00346221
      17     bnd      15      19       0       0     1.07166666    -0.00000000
      18     bnd      11      16       0       0     1.40045639     0.00070715
      19     bnd      15      16       0       0     1.40045639    -0.00000697
      20     bnd      16      20       0       0     1.07166668     0.00000000
      21     bnd      12      17       0       0     1.07166668     0.00000000
      22     bnd      13      18       0       0     1.07166666     0.00000000
      23     bnd       4      23       0       0     2.50685892     0.00000000
      24     bnd      23      25       0       0     1.61750189    -0.00000000
      25     bnd      23      24       0       0     1.61750189     0.00000000
      26     bnd      23      26       0       0     1.61750189     0.00000000
      27     bnd       2      10       0       0     2.58285714    -0.68987269
      28     bnd      10      14       0       0     2.88246877    -0.09175027
      29     bnd      10      15       0       0     3.07855488     0.00948378
      30     ang       6       2      14       0   117.41061246    -0.00105755
      31     ang       6       2       3       0   120.77103538    -0.00679440
      32     ang       6       2      10       0    84.09702452    -0.02688514
      33     ang      14       2       3       0   120.89733876    -0.01515325
      34     ang      14       2      10       0    84.70507562     0.18875993
      35     ang       3       2      10       0   110.16403203    -0.04133659
      36     ang       1       3       2       0   120.21909900     0.00000017
      37     ang       1       3       4       0   115.74474309     0.00000023
      38     ang       2       3       4       0   124.03410402     0.00000019
      39     ang       3       4      22       0   114.37019779     0.00000000
      40     ang       3       4       5       0   126.33327002    -0.00000000
      41     ang       3       4      23       0   163.38119183     0.00000000
      42     ang      22       4       5       0   119.29637471     0.00000000
      43     ang      22       4      23       0    82.16002634     0.00000000
      44     ang       5       4      23       0    37.17058570    -0.00000000
      45     ang       4       5      23       0   117.00680806     0.00000000
      46     ang       8      10       7       0   118.84988012     0.00127906
      47     ang       8      10       9       0   118.87311123     0.00070838
      48     ang       8      10       2       0    95.56458342    -0.00053574
      49     ang       8      10      14       0    78.54912471     0.00128165
      50     ang       8      10      15       0    89.23041841    -0.00754319
      51     ang       7      10       9       0   118.99448321    -0.00187079
      52     ang       7      10       2       0    97.44889075     0.01484469
      53     ang       7      10      14       0    82.13060339    -0.00925549
      54     ang       7      10      15       0    55.68992698    -0.00718280
      55     ang       9      10       2       0    95.11483796    -0.01468474
      56     ang       9      10      14       0   127.22419637     0.00867527
      57     ang       9      10      15       0   140.74147852     0.01524780
      58     ang       2      10      15       0    52.59994653     0.03297696
      59     ang      21      11      12       0   120.00000003    -0.00066754
      60     ang      21      11      16       0   119.99999998    -0.00066754
      61     ang      12      11      16       0   119.99999999     0.00133507
      62     ang      11      12      13       0   120.00000045    -0.00033897
      63     ang      11      12      17       0   119.99999992     0.00016948
      64     ang      13      12      17       0   119.99999963     0.00016948
      65     ang      12      13      14       0   119.99999956    -0.00373703
      66     ang      12      13      18       0   120.00000060     0.00186852
      67     ang      14      13      18       0   119.99999984     0.00186852
      68     ang       2      14      13       0   120.00000008     0.01864000
      69     ang       2      14      15       0   119.99999944    -0.02484829
      70     ang       2      14      10       0    63.15528843    -0.21142118
      71     ang      13      14      15       0   120.00000047     0.00620829
      72     ang      13      14      10       0   123.34795653     0.02665727
      73     ang      15      14      10       0    84.36745140     0.03753134
      74     ang      14      15      19       0   120.00000056     0.00246217
      75     ang      14      15      16       0   119.99999929    -0.00307841
      76     ang      14      15      10       0    68.71481583    -0.03791878
      77     ang      19      15      16       0   120.00000015     0.00061624
      78     ang      19      15      10       0    73.30633988    -0.01855344
      79     ang      16      15      10       0   130.56157217     0.05093854
      80     ang      11      16      15       0   120.00000024    -0.00038895
      81     ang      11      16      20       0   119.99999995     0.00019448
      82     ang      15      16      20       0   119.99999981     0.00019448
      83     ang       5      23      25       0    89.99999974    -0.00000000
      84     ang       5      23      24       0    90.00000011     0.00000000
      85     ang       5      23      26       0    89.99999973     0.00000000
      86     ang       4      23      25       0    80.38815531     0.00000000
      87     ang       4      23      24       0    74.63739682    -0.00000000
      88     ang       4      23      26       0   115.58815964    -0.00000000
      89     ang      25      23      24       0   120.00000066    -0.00000000
      90     ang      25      23      26       0   119.99999967     0.00000000
      91     ang      24      23      26       0   119.99999967    -0.00000000
      92     dih       6       2      14      13    34.24865644    -0.13039208
      93     dih       6       2      14      15   214.24865620     0.03846705
      94     dih       6       2      14      10   -80.53711813    -0.07167408
      95     dih       3       2      14      13   225.14946408     0.00496807
      96     dih       3       2      14      15    45.14946384     0.17382720
      97     dih       3       2      14      10   110.36368951     0.06368608
      98     dih      10       2      14      13   114.78577457    -0.05871800
      99     dih      10       2      14      15   -65.21422568     0.11014113
     100     dih       6       2       3       1   185.43025046     0.04588532
     101     dih       6       2       3       4     5.97435318     0.04580672
     102     dih      14       2       3       1    -5.83693582    -0.09344508
     103     dih      14       2       3       4   174.70716690    -0.09352368
     104     dih      10       2       3       1    90.20089317     0.10816148
     105     dih      10       2       3       4   -89.25500411     0.10808288
     106     dih       1       3       4      22   180.37552847    -0.00004026
     107     dih       1       3       4       5     0.52197473    -0.00004027
     108     dih       1       3       4      23     6.59180955    -0.00004030
     109     dih       2       3       4      22    -0.14644617     0.00003514
     110     dih       2       3       4       5   180.00000148     0.00003513
     111     dih       2       3       4      23   186.06983491     0.00003510
     112     dih       3       4       5      23   177.13092032     0.00000001
     113     dih      22       4       5      23    -2.71611828     0.00000000
     114     dih       4       5      23      25   -67.45999877    -0.00000001
     115     dih       4       5      23      24    52.54000189    -0.00000001
     116     dih       4       5      23      26   172.54000156    -0.00000001
     117     dih      21      11      12      13   180.00000000    -0.01606104
     118     dih      21      11      12      17    -0.00000085     0.00766696
     119     dih      16      11      12      13     0.00000085    -0.01014813
     120     dih      16      11      12      17   179.99999915     0.01357987
     121     dih      11      12      13      14    -0.00000171     0.02646762
     122     dih      11      12      13      18   179.99999915     0.04318598
     123     dih      17      12      13      14   180.00000148     0.00273962
     124     dih      17      12      13      18     0.00000171     0.01945798
     125     dih      12      13      14       2   180.00000171     0.15484532
     126     dih      12      13      14      15     0.00000171    -0.01401381
     127     dih      12      13      14      10   255.86129775    -0.09266214
     128     dih      18      13      14       2     0.00000000     0.13812696
     129     dih      18      13      14      15   180.00000085    -0.03073217
     130     dih      18      13      14      10    75.86129736    -0.10938050
     131     dih       2      14      15      19    -0.00000171    -0.15969932
     132     dih       2      14      15      16   179.99999852    -0.18361861
     133     dih       2      14      15      10    54.48589834    -0.22638700
     134     dih      13      14      15      19   179.99999852     0.00915981
     135     dih      13      14      15      16    -0.00000148    -0.01475948
     136     dih      13      14      15      10   234.48589810    -0.05752787
     137     dih      10      14      15      19   -54.48589835     0.06668768
     138     dih      10      14      15      16   125.51410150     0.04276839
     139     dih      21      11      16      15   179.99999915    -0.01271225
     140     dih      21      11      16      20     0.00000000     0.00402446
     141     dih      12      11      16      15    -0.00000085    -0.01862517
     142     dih      12      11      16      20   180.00000000    -0.00188845
     143     dih      14      15      16      11     0.00000191     0.03107897
     144     dih      14      15      16      20   180.00000171     0.01434226
     145     dih      19      15      16      11   180.00000226     0.00715968
     146     dih      19      15      16      20     0.00000191    -0.00957703
     147     dih      10      15      16      11    86.69956322     0.00169453
     148     dih      10      15      16      20   266.69956323    -0.01504218
     149     dih       3       4      23       5    -8.10496260     0.00000004
     150     dih       3       4      23      25   102.38020076     0.00000003
     151     dih       3       4      23      24   227.30065372     0.00000003
     152     dih       3       4      23      26   -16.38159301     0.00000003
     153     dih      22       4      23       5   177.60912466     0.00000000
     154     dih      22       4      23      25   -71.90571197    -0.00000000
     155     dih      22       4      23      24    53.01474099    -0.00000000
     156     dih      22       4      23      26   169.33249425    -0.00000000
     157     dih       5       4      23      25   110.48516337    -0.00000001
     158     dih       5       4      23      24   235.40561632    -0.00000001
     159     dih       5       4      23      26    -8.27663041    -0.00000001
     160     dih       6       2      10       8    60.32627910    -0.05732965
     161     dih       6       2      10       7   180.43650753    -0.05333120
     162     dih       6       2      10       9   -59.39742086    -0.05556730
     163     dih       6       2      10      14   118.31924202    -0.02834511
     164     dih       6       2      10      15   145.07776256    -0.06095064
     165     dih      14       2      10       8   -57.99296292    -0.02898454
     166     dih      14       2      10       7    62.11726551    -0.02498609
     167     dih      14       2      10       9   182.28333712    -0.02722219
     168     dih      14       2      10      15    26.75852053    -0.03260552
     169     dih       3       2      10       8   180.98682002    -0.07845744
     170     dih       3       2      10       7   -58.90295155    -0.07445899
     171     dih       3       2      10       9    61.26312006    -0.07669508
     172     dih       3       2      10      14   238.97978294    -0.04947290
     173     dih       3       2      10      15   265.73830347    -0.08207842
     174     dih       8      10      14       2   120.55659496    -0.03033504
     175     dih       8      10      14      13    10.81460513     0.06411059
     176     dih       8      10      14      15   248.36518556     0.02149315
     177     dih       7      10      14       2   242.22438904    -0.02635564
     178     dih       7      10      14      13   132.48239922     0.06808999
     179     dih       7      10      14      15    10.03297964     0.02547254
     180     dih       9      10      14       2     2.85653387    -0.03367166
     181     dih       9      10      14      13   253.11454404     0.06077397
     182     dih       9      10      14      15   130.66512447     0.01815653
     183     dih       2      10      14      13   250.25801017     0.09444563
     184     dih       2      10      14      15   127.80859060     0.05182818
     185     dih      15      10      14       2   232.19140940    -0.05182818
     186     dih      15      10      14      13   122.44941957     0.04261745
     187     dih       8      10      15      14    65.66230388     0.01964536
     188     dih       8      10      15      19   198.27580797     0.06687464
     189     dih       8      10      15      16   -46.23027986     0.05661321
     190     dih       7      10      15      14   192.05953883     0.03153362
     191     dih       7      10      15      19   -35.32695708     0.07876290
     192     dih       7      10      15      16    80.16695508     0.06850146
     193     dih       9      10      15      14   -72.64127535     0.01129854
     194     dih       9      10      15      19    59.97222874     0.05852782
     195     dih       9      10      15      16   175.46614091     0.04826639
     196     dih       2      10      15      14   -31.94269627     0.01830390
     197     dih       2      10      15      19   100.67080782     0.06553318
     198     dih       2      10      15      16   216.16471998     0.05527175
     199     dih      14      10      15      19   132.61350409     0.04722928
     200     dih      14      10      15      16   248.10741625     0.03696785
 
----------------------------------------------------------------------
Geometry Convergence after Step   1       (Hartree/Angstrom,Angstrom)
----------------------------------------------------------------------
current energy                               -5.48363193 Hartree
energy change                      -5.48363193     0.00026000    F
constrained gradient max            0.12876072     0.00100000    F
constrained gradient rms            0.03617066     0.00066667    F
gradient max                        0.12876072
gradient rms                        0.03617066
cart. step max                      0.07478533     0.01000000    F
cart. step rms                      0.02533307     0.00666667    F
 
 
--------
Geometry
--------
Formula: C10H11AlF3O
Atoms
  Index Symbol   x (angstrom)   y (angstrom)   z (angstrom)
      1      H     0.20209214    -1.88840456    -0.24167936
      2      C    -0.92755229    -0.16091988     0.28020979
      3      C     0.21204946    -0.81366760    -0.06393163
      4      C     1.50543679    -0.14772903    -0.21870272
      5      O     2.55709068    -0.69538939    -0.53319181
      6      H    -0.93954715     0.92140247     0.35517434
      7      H    -1.14944118    -1.15290361     3.00362033
      8      H    -2.08102630     0.45402622     2.84402385
      9      H    -0.22160773     0.46462870     2.98831806
     10      C    -1.14101453    -0.08470022     2.82975521
     11      C    -4.77113206    -2.15710371     0.37112841
     12      C    -4.64961836    -0.89711766    -0.22558678
     13      C    -3.40845588    -0.25156023    -0.25085877
     14      C    -2.28341283    -0.87359416     0.30492629
     15      C    -2.40556259    -2.13427401     0.90212358
     16      C    -3.64889641    -2.77472052     0.93552688
     17      H    -5.51018065    -0.42289445    -0.66017952
     18      H    -3.31714604     0.71853886    -0.70353478
     19      H    -1.54607610    -2.61019249     1.33573413
     20      H    -3.74262059    -3.74031862     1.39725638
     21      H    -5.72601037    -2.64885064     0.39863463
     22      H     1.48949248     0.91279945    -0.04202388
     23     Al     3.92907378     0.32398755    -0.72180847
     24      F     3.74282062     1.01149483     0.74276218
     25      F     3.31087187     1.06762359    -2.03149659
     26      F     4.94294704    -0.93550218    -0.90235934
 
Total System Charge             0.00000
 
 *** GOStep2 ***

 Energy gradients wrt nuclear displacements
 ==========================================

     Atom      Cartesian (a.u./angstrom)
                 X         Y         Z
 ----------------------------------------
     1 H     0.000049 -0.001483 -0.000000
     2 C     0.057108  0.028200  0.003644
     3 C    -0.053061  0.009877  0.007630
     4 C     0.108928  0.013074 -0.019415
     5 O     0.087682  0.106993 -0.005461
     6 H     0.000055 -0.004203  0.002917
     7 H    -0.001193 -0.004913 -0.002774
     8 H    -0.000777  0.001098 -0.001207
     9 H    -0.000854 -0.000550 -0.001627
    10 C    -0.005420 -0.006751 -0.011408
    11 C    -0.017792 -0.010675  0.001185
    12 C    -0.019599  0.009701 -0.009100
    13 C     0.010243  0.017022 -0.009389
    14 C    -0.049367 -0.029537 -0.000156
    15 C     0.028338  0.007672  0.016785
    16 C    -0.007100 -0.021151  0.010526
    17 H     0.012718 -0.007658  0.007048
    18 H    -0.001143 -0.014922  0.006977
    19 H    -0.009983  0.007815 -0.005237
    20 H     0.000963  0.014773 -0.007408
    21 H     0.014705  0.007488 -0.000518
    22 H    -0.000375 -0.031979 -0.004898
    23 Al   -0.055393 -0.001852  0.012740
    24 F    -0.024638 -0.055354 -0.058157
    25 F    -0.004324 -0.056060  0.056781
    26 F    -0.069770  0.023373  0.010522
 ----------------------------------------
 Mulliken charges used for AMS results%charges...
Hessian eigenvector     1(    -0.002) has overlap with TSRC:    0.45354E+00
Hessian eigenvector     1 has the largest overlap with TSRC:  0.45354
           Primitive Internal Coordinates (atoms in internal order)
-------------------------------------------------------------------------------
    index    type      i       j       k       l   value(A,deg)     Max Ovl Vect
-------------------------------------------------------------------------------
       1     bnd       1       3       0       0     1.08938191    -0.00110153
       2     bnd       2       6       0       0     1.08498168     0.00155919
       3     bnd       2      14       0       0     1.53195083    -0.02235934
       4     bnd       2       3       0       0     1.35764687     0.01072235
       5     bnd       3       4       0       0     1.46296927    -0.01847311
       6     bnd       4      22       0       0     1.07526289     0.00848037
       7     bnd       4       5       0       0     1.22670745     0.02963530
       8     bnd       5      23       0       0     1.71960553     0.01403147
       9     bnd       8      10       0       0     1.08353675    -0.00015011
      10     bnd       7      10       0       0     1.08229319    -0.00050352
      11     bnd       9      10       0       0     1.08268800     0.00024440
      12     bnd      11      21       0       0     1.07441343     0.00356237
      13     bnd      11      12       0       0     1.39942826    -0.00043442
      14     bnd      12      13       0       0     1.39923814    -0.00239171
      15     bnd      13      14       0       0     1.40055172     0.00187785
      16     bnd      14      15       0       0     1.40031383    -0.00122007
      17     bnd      15      19       0       0     1.07388712     0.00344120
      18     bnd      11      16       0       0     1.39978892    -0.00000912
      19     bnd      15      16       0       0     1.39898767    -0.00201644
      20     bnd      16      20       0       0     1.07441055     0.00368432
      21     bnd      12      17       0       0     1.07439563     0.00359014
      22     bnd      13      18       0       0     1.07440463     0.00370297
      23     bnd       4      23       0       0     2.51985082     0.02703768
      24     bnd      23      25       0       0     1.62802062     0.00765504
      25     bnd      23      24       0       0     1.62859562     0.00669240
      26     bnd      23      26       0       0     1.62691487     0.00785388
      27     bnd       2      10       0       0     2.55960103    -0.64199191
      28     bnd      10      14       0       0     2.88135186    -0.08119080
      29     bnd      10      15       0       0     3.08473633     0.04143637
      30     ang       6       2      14       0   116.94708554    -0.01552063
      31     ang       6       2       3       0   120.42491334    -0.01512659
      32     ang       6       2      10       0    84.29259097     0.00057260
      33     ang      14       2       3       0   121.55600114     0.00771568
      34     ang      14       2      10       0    85.63968850     0.18197752
      35     ang       3       2      10       0   109.68250099    -0.06552726
      36     ang       1       3       2       0   120.53183317     0.00490198
      37     ang       1       3       4       0   116.09727835     0.00364077
      38     ang       2       3       4       0   123.37088542    -0.00838163
      39     ang       3       4      22       0   114.73780976     0.00800674
      40     ang       3       4       5       0   125.57891978    -0.00491831
      41     ang       3       4      23       0   163.07023220    -0.00277322
      42     ang      22       4       5       0   119.68072668    -0.00310138
      43     ang      22       4      23       0    82.09292945    -0.00496316
      44     ang       5       4      23       0    37.61075635     0.00152696
      45     ang       4       5      23       0   116.58087000    -0.00657976
      46     ang       8      10       7       0   118.80628697    -0.00078282
      47     ang       8      10       9       0   118.84972376    -0.00239027
      48     ang       8      10       2       0    95.75484531     0.01927428
      49     ang       8      10      14       0    78.67959714     0.00616200
      50     ang       8      10      15       0    89.02241776    -0.02172841
      51     ang       7      10       9       0   118.93745693    -0.00236195
      52     ang       7      10       2       0    97.54316286     0.00857979
      53     ang       7      10      14       0    82.38315352     0.00611103
      54     ang       7      10      15       0    56.04233663     0.01326606
      55     ang       9      10       2       0    95.17319321    -0.01245125
      56     ang       9      10      14       0   127.15216079     0.00244198
      57     ang       9      10      15       0   140.96341705     0.02867934
      58     ang       2      10      15       0    52.55234818     0.02464096
      59     ang      21      11      12       0   120.01127383    -0.00016567
      60     ang      21      11      16       0   120.01701852    -0.00053638
      61     ang      12      11      16       0   119.97145203     0.00070205
      62     ang      11      12      13       0   120.00760541    -0.00077053
      63     ang      11      12      17       0   120.02212764     0.00108641
      64     ang      13      12      17       0   119.96957782    -0.00031588
      65     ang      12      13      14       0   120.03052779    -0.00121731
      66     ang      12      13      18       0   119.97144606     0.00065119
      67     ang      14      13      18       0   119.99639446     0.00056612
      68     ang       2      14      13       0   119.86345218     0.01083408
      69     ang       2      14      15       0   120.19222430    -0.01368839
      70     ang       2      14      10       0    62.34546837    -0.19711083
      71     ang      13      14      15       0   119.93488950     0.00285431
      72     ang      13      14      10       0   122.99846775     0.01097256
      73     ang      15      14      10       0    84.68519585     0.04634062
      74     ang      14      15      19       0   120.09051007     0.00555126
      75     ang      14      15      16       0   119.99015296    -0.00307353
      76     ang      14      15      10       0    68.44287996    -0.04481074
      77     ang      19      15      16       0   119.91930582    -0.00247773
      78     ang      19      15      10       0    73.38402094    -0.01279915
      79     ang      16      15      10       0   130.81169213     0.05907745
      80     ang      11      16      15       0   120.05969864     0.00150500
      81     ang      11      16      20       0   119.99183654    -0.00036950
      82     ang      15      16      20       0   119.94825611    -0.00113551
      83     ang       5      23      25       0    93.21304891    -0.00555736
      84     ang       5      23      24       0    93.46067650    -0.02229297
      85     ang       5      23      26       0    92.89252911    -0.00176625
      86     ang       4      23      25       0    83.15972666    -0.00998344
      87     ang       4      23      24       0    77.84717849    -0.02630435
      88     ang       4      23      26       0   118.46538312     0.00327763
      89     ang      25      23      24       0   119.15615838    -0.01501968
      90     ang      25      23      26       0   120.06470395     0.00705739
      91     ang      24      23      26       0   119.85981279     0.00796229
      92     dih       6       2      14      13    32.75202770    -0.17130536
      93     dih       6       2      14      15   213.86997778    -0.00754094
      94     dih       6       2      14      10   -81.33556951    -0.10193693
      95     dih       3       2      14      13   224.54883421    -0.03530804
      96     dih       3       2      14      15    45.66678430     0.12845638
      97     dih       3       2      14      10   110.46123700     0.03406039
      98     dih      10       2      14      13   114.08759721    -0.06936843
      99     dih      10       2      14      15   -64.79445270     0.09439599
     100     dih       6       2       3       1   186.44035680     0.06816738
     101     dih       6       2       3       4     6.46129504     0.04680384
     102     dih      14       2       3       1    -5.76102548    -0.07232799
     103     dih      14       2       3       4   174.25991276    -0.09369154
     104     dih      10       2       3       1    91.41548554     0.11524312
     105     dih      10       2       3       4   -88.56357622     0.09387958
     106     dih       1       3       4      22   179.77189186    -0.01668808
     107     dih       1       3       4       5     0.35741897    -0.01066552
     108     dih       1       3       4      23     6.29491817    -0.02652931
     109     dih       2       3       4      22    -0.24819068     0.00381660
     110     dih       2       3       4       5   180.33733644     0.00983916
     111     dih       2       3       4      23   186.27483563    -0.00602463
     112     dih       3       4       5      23   177.17086471     0.00711192
     113     dih      22       4       5      23    -2.21703054     0.01338808
     114     dih       4       5      23      25   -67.04039469     0.00769891
     115     dih       4       5      23      24    52.44784423    -0.00732077
     116     dih       4       5      23      26   172.61212176     0.00064152
     117     dih      21      11      12      13   179.43353055    -0.02226790
     118     dih      21      11      12      17    -0.26440815    -0.00176181
     119     dih      16      11      12      13    -0.38258993    -0.01161148
     120     dih      16      11      12      17   179.91947137     0.00889462
     121     dih      11      12      13      14     0.85760766     0.03958509
     122     dih      11      12      13      18   180.39294237     0.04104290
     123     dih      17      12      13      14   180.55570624     0.01907900
     124     dih      17      12      13      18     0.09104095     0.02053681
     125     dih      12      13      14       2   180.24630089     0.12713224
     126     dih      12      13      14      15    -0.86874623    -0.03663218
     127     dih      12      13      14      10   254.86170049    -0.11307492
     128     dih      18      13      14       2     0.71108294     0.12567443
     129     dih      18      13      14      15   179.59603582    -0.03808999
     130     dih      18      13      14      10    75.32648254    -0.11453273
     131     dih       2      14      15      19    -0.64912199    -0.13941595
     132     dih       2      14      15      16   179.28662670    -0.15805876
     133     dih       2      14      15      10    53.59919673    -0.20726818
     134     dih      13      14      15      19   180.46962998     0.02434847
     135     dih      13      14      15      16     0.40537866     0.00570566
     136     dih      13      14      15      10   234.71794870    -0.04350376
     137     dih      10      14      15      19   -54.24831872     0.06785223
     138     dih      10      14      15      16   125.68742997     0.04920942
     139     dih      21      11      16      15   180.10316181    -0.00865862
     140     dih      21      11      16      20    -0.06310410    -0.00353747
     141     dih      12      11      16      15    -0.08072836    -0.01931505
     142     dih      12      11      16      20   179.75300573    -0.01419390
     143     dih      14      15      16      11     0.06896864     0.02226796
     144     dih      14      15      16      20   180.23516164     0.01714681
     145     dih      19      15      16      11   180.00482809     0.00362514
     146     dih      19      15      16      20     0.17102110    -0.00149600
     147     dih      10      15      16      11    86.50596854    -0.01258430
     148     dih      10      15      16      20   266.67216154    -0.01770545
     149     dih       3       4      23       5    -7.92375272     0.02101694
     150     dih       3       4      23      25   104.26824558     0.02504435
     151     dih       3       4      23      24   226.12279759     0.02336235
     152     dih       3       4      23      26   -16.32372701     0.02150131
     153     dih      22       4      23       5   178.05547130     0.01168174
     154     dih      22       4      23      25   -69.75253041     0.01570914
     155     dih      22       4      23      24    52.10202160     0.01402715
     156     dih      22       4      23      26   169.65549700     0.01216610
     157     dih       5       4      23      25   112.19199829     0.00402740
     158     dih       5       4      23      24   234.04655031     0.00234541
     159     dih       5       4      23      26    -8.39997430     0.00048436
     160     dih       6       2      10       8    59.90044665    -0.03924902
     161     dih       6       2      10       7   180.02380136    -0.03443325
     162     dih       6       2      10       9   -59.83960772    -0.03784320
     163     dih       6       2      10      14   117.66930915    -0.04635576
     164     dih       6       2      10      15   144.23128890    -0.07767269
     165     dih      14       2      10       8   -57.76886250     0.00710673
     166     dih      14       2      10       7    62.35449220     0.01192251
     167     dih      14       2      10       9   182.49108313     0.00851256
     168     dih      14       2      10      15    26.56197975    -0.03131694
     169     dih       3       2      10       8   180.21595239    -0.06161015
     170     dih       3       2      10       7   -59.66069290    -0.05679437
     171     dih       3       2      10       9    60.47589802    -0.06020432
     172     dih       3       2      10      14   237.98481489    -0.06871688
     173     dih       3       2      10      15   264.54679464    -0.10003382
     174     dih       8      10      14       2   120.86937490     0.01281894
     175     dih       8      10      14      13    11.59996601     0.10476510
     176     dih       8      10      14      15   249.10964659     0.06470054
     177     dih       7      10      14       2   242.37321928     0.00824314
     178     dih       7      10      14      13   133.10381039     0.10018930
     179     dih       7      10      14      15    10.61349097     0.06012474
     180     dih       9      10      14       2     3.11326002     0.01080087
     181     dih       9      10      14      13   253.84385113     0.10274704
     182     dih       9      10      14      15   131.35353171     0.06268247
     183     dih       2      10      14      13   250.73059111     0.09194616
     184     dih       2      10      14      15   128.24027170     0.05188160
     185     dih      15      10      14       2   231.75972830    -0.05188160
     186     dih      15      10      14      13   122.49031941     0.04006457
     187     dih       8      10      15      14    66.37981015     0.06014085
     188     dih       8      10      15      19   199.25934462     0.11208790
     189     dih       8      10      15      16   -45.27084631     0.10299868
     190     dih       7      10      15      14   192.71459558     0.07085084
     191     dih       7      10      15      19   -34.40586995     0.12279789
     192     dih       7      10      15      16    81.06393912     0.11370867
     193     dih       9      10      15      14   -71.79522693     0.06594315
     194     dih       9      10      15      19    61.08430754     0.11789020
     195     dih       9      10      15      16   176.55411662     0.10880098
     196     dih       2      10      15      14   -31.63267659     0.02182671
     197     dih       2      10      15      19   101.24685788     0.07377376
     198     dih       2      10      15      16   216.71666696     0.06468454
     199     dih      14      10      15      19   132.87953447     0.05194705
     200     dih      14      10      15      16   248.34934354     0.04285783
 
----------------------------------------------------------------------
Geometry Convergence after Step   2       (Hartree/Angstrom,Angstrom)
----------------------------------------------------------------------
current energy                               -5.50484477 Hartree
energy change                      -0.02121284     0.00026000    F
constrained gradient max            0.10892647     0.00100000    F
constrained gradient rms            0.02994721     0.00066667    F
gradient max                        0.10892647
gradient rms                        0.02994721
cart. step max                      0.05755040     0.01000000    F
cart. step rms                      0.01950706     0.00666667    F
 
 
--------
Geometry
--------
Formula: C10H11AlF3O
Atoms
  Index Symbol   x (angstrom)   y (angstrom)   z (angstrom)
      1      H     0.21360445    -1.91434228    -0.23220049
      2      C    -0.92716532    -0.18005524     0.26060208
      3      C     0.21662802    -0.83758663    -0.06856843
      4      C     1.49750086    -0.16176742    -0.22992549
      5      O     2.55404195    -0.71459733    -0.53539827
      6      H    -0.93617033     0.90398586     0.31791818
      7      H    -1.16778152    -1.15900878     3.03999559
      8      H    -2.11082515     0.43917089     2.87506786
      9      H    -0.25314722     0.46528421     3.03202382
     10      C    -1.16649219    -0.09169369     2.86418752
     11      C    -4.77488239    -2.14825670     0.36628852
     12      C    -4.64598691    -0.88612441    -0.22220511
     13      C    -3.40318066    -0.24588749    -0.23891663
     14      C    -2.28074007    -0.87544397     0.31470393
     15      C    -2.41278448    -2.13701624     0.90915901
     16      C    -3.65740401    -2.77270532     0.93113663
     17      H    -5.50381218    -0.40588793    -0.66127378
     18      H    -3.30593411     0.72637168    -0.69123158
     19      H    -1.55706809    -2.62064411     1.34646826
     20      H    -3.75739835    -3.74105509     1.39119133
     21      H    -5.73393574    -2.63720417     0.38813856
     22      H     1.47485123     0.90622853    -0.07178016
     23     Al     3.93058847     0.32178151    -0.73665331
     24      F     3.77841682     1.06763258     0.71263975
     25      F     3.35115328     1.08562293    -2.06250578
     26      F     5.00049744    -0.90214267    -0.90502162
 
Total System Charge             0.00000
 
 *** GOStep3 ***

 Energy gradients wrt nuclear displacements
 ==========================================

     Atom      Cartesian (a.u./angstrom)
                 X         Y         Z
 ----------------------------------------
     1 H    -0.000040 -0.001375 -0.000591
     2 C     0.050456  0.026828  0.003301
     3 C    -0.043087  0.006100  0.005105
     4 C     0.097832  0.011767 -0.016674
     5 O     0.071851  0.088937 -0.005981
     6 H    -0.000853 -0.003767  0.002008
     7 H    -0.001259 -0.003690 -0.002244
     8 H    -0.000574  0.000851 -0.000564
     9 H    -0.001037 -0.000528 -0.000688
    10 C    -0.004955 -0.007843 -0.014254
    11 C    -0.014291 -0.008652  0.001073
    12 C    -0.015932  0.007446 -0.007459
    13 C     0.009840  0.013553 -0.007112
    14 C    -0.046823 -0.025664  0.003245
    15 C     0.024334  0.008986  0.016554
    16 C    -0.006419 -0.017761  0.006700
    17 H     0.010296 -0.006461  0.005522
    18 H    -0.001035 -0.012183  0.005637
    19 H    -0.008238  0.006508 -0.003956
    20 H     0.000787  0.012070 -0.005892
    21 H     0.011912  0.006149 -0.000146
    22 H    -0.001243 -0.025957 -0.003647
    23 Al   -0.052357 -0.002392  0.011877
    24 F    -0.019004 -0.045554 -0.045912
    25 F    -0.003276 -0.044905  0.045866
    26 F    -0.056885  0.017539  0.008230
 ----------------------------------------
 Mulliken charges used for AMS results%charges...
Hessian eigenvector     1(     0.000) has overlap with TSRC:    0.40297E+00
Hessian eigenvector     2(     0.006) has overlap with TSRC:    0.21998E+00
Hessian eigenvector     3(     0.009) has overlap with TSRC:    0.24161E-01
Hessian eigenvector     4(     0.010) has overlap with TSRC:    0.60747E-01
Hessian eigenvector     5(     0.010) has overlap with TSRC:    0.18059E-01
Hessian eigenvector     6(     0.010) has overlap with TSRC:    0.68537E-02
Hessian eigenvector     7(     0.010) has overlap with TSRC:    0.21150E-01
Hessian eigenvector     8(     0.010) has overlap with TSRC:    0.51278E-01
Hessian eigenvector     9(     0.011) has overlap with TSRC:    0.30730E-01
Hessian eigenvector    10(     0.011) has overlap with TSRC:    0.10413E-03
Hessian eigenvector    11(     0.012) has overlap with TSRC:    0.21633E-01
Hessian eigenvector    12(     0.012) has overlap with TSRC:    0.85941E-02
Hessian eigenvector    13(     0.012) has overlap with TSRC:    0.41042E-01
Hessian eigenvector    14(     0.013) has overlap with TSRC:    0.61238E-01
Hessian eigenvector    15(     0.015) has overlap with TSRC:    0.28958E-01
Hessian eigenvector    16(     0.016) has overlap with TSRC:    0.58667E-02
Hessian eigenvector    17(     0.020) has overlap with TSRC:    0.50451E-01
Hessian eigenvector    18(     0.021) has overlap with TSRC:    0.20882E+00
Hessian eigenvector    19(     0.022) has overlap with TSRC:    0.16227E+00
Hessian eigenvector    20(     0.028) has overlap with TSRC:    0.16562E-01
Hessian eigenvector    21(     0.031) has overlap with TSRC:    0.16295E-01
Hessian eigenvector    22(     0.039) has overlap with TSRC:    0.31379E-01
Hessian eigenvector    23(     0.043) has overlap with TSRC:    0.51890E-01
Hessian eigenvector    24(     0.051) has overlap with TSRC:    0.37305E-01
Hessian eigenvector    25(     0.067) has overlap with TSRC:    0.56118E-01
Hessian eigenvector    26(     0.084) has overlap with TSRC:    0.48965E-01
Hessian eigenvector    27(     0.087) has overlap with TSRC:    0.47720E-02
Hessian eigenvector    28(     0.089) has overlap with TSRC:    0.20492E-01
Hessian eigenvector    29(     0.100) has overlap with TSRC:    0.12455E-02
Hessian eigenvector    30(     0.110) has overlap with TSRC:    0.68873E-02
Hessian eigenvector    31(     0.111) has overlap with TSRC:    0.25690E-02
Hessian eigenvector    32(     0.121) has overlap with TSRC:    0.11080E+00
Hessian eigenvector    33(     0.123) has overlap with TSRC:    0.83820E-02
Hessian eigenvector    34(     0.167) has overlap with TSRC:    0.77178E-01
Hessian eigenvector    35(     0.197) has overlap with TSRC:    0.29971E-05
Hessian eigenvector    36(     0.205) has overlap with TSRC:    0.12765E-01
Hessian eigenvector    37(     0.208) has overlap with TSRC:    0.65693E-03
Hessian eigenvector    38(     0.212) has overlap with TSRC:    0.89011E-02
Hessian eigenvector    39(     0.216) has overlap with TSRC:    0.16970E-02
Hessian eigenvector    40(     0.223) has overlap with TSRC:    0.99768E-03
Hessian eigenvector    41(     0.223) has overlap with TSRC:    0.48318E-04
Hessian eigenvector    42(     0.223) has overlap with TSRC:    0.27300E-04
Hessian eigenvector    43(     0.223) has overlap with TSRC:    0.14665E-03
Hessian eigenvector    44(     0.230) has overlap with TSRC:    0.93350E-02
Hessian eigenvector    45(     0.234) has overlap with TSRC:    0.13779E-02
Hessian eigenvector    46(     0.240) has overlap with TSRC:    0.16533E-01
Hessian eigenvector    47(     0.298) has overlap with TSRC:    0.31989E-02
Hessian eigenvector    48(     0.383) has overlap with TSRC:    0.22128E-02
Hessian eigenvector    49(     0.417) has overlap with TSRC:    0.19661E-01
Hessian eigenvector    50(     0.452) has overlap with TSRC:    0.35912E-02
Hessian eigenvector    51(     0.485) has overlap with TSRC:    0.67374E-02
Hessian eigenvector    52(     0.500) has overlap with TSRC:    0.17733E-03
Hessian eigenvector    53(     0.503) has overlap with TSRC:    0.35484E-03
Hessian eigenvector    54(     0.503) has overlap with TSRC:    0.12918E-03
Hessian eigenvector    55(     0.503) has overlap with TSRC:    0.54056E-03
Hessian eigenvector    56(     0.503) has overlap with TSRC:    0.37976E-03
Hessian eigenvector    57(     0.507) has overlap with TSRC:    0.24820E-02
Hessian eigenvector    58(     0.508) has overlap with TSRC:    0.28928E-02
Hessian eigenvector    59(     0.508) has overlap with TSRC:    0.55047E-04
Hessian eigenvector    60(     0.508) has overlap with TSRC:    0.35022E-05
Hessian eigenvector    61(     0.508) has overlap with TSRC:    0.42045E-05
Hessian eigenvector    62(     0.508) has overlap with TSRC:    0.34798E-04
Hessian eigenvector    63(     0.509) has overlap with TSRC:    0.62972E-03
Hessian eigenvector    64(     0.522) has overlap with TSRC:    0.11168E-02
Hessian eigenvector    65(     0.547) has overlap with TSRC:    0.16160E-02
Hessian eigenvector    66(     0.547) has overlap with TSRC:    0.70076E-03
Hessian eigenvector    67(     0.547) has overlap with TSRC:    0.12152E-02
Hessian eigenvector    68(     0.563) has overlap with TSRC:    0.70447E-02
Hessian eigenvector    69(     0.572) has overlap with TSRC:    0.54520E-02
Hessian eigenvector    70(     0.576) has overlap with TSRC:    0.84385E-02
Hessian eigenvector    71(     0.580) has overlap with TSRC:    0.89224E-04
Hessian eigenvector    72(     0.580) has overlap with TSRC:    0.14450E-02
Hessian eigenvector     1 has the largest overlap with TSRC:  0.40297
           Primitive Internal Coordinates (atoms in internal order)
-------------------------------------------------------------------------------
    index    type      i       j       k       l   value(A,deg)     Max Ovl Vect
-------------------------------------------------------------------------------
       1     bnd       1       3       0       0     1.08912228    -0.00054030
       2     bnd       2       6       0       0     1.08559261     0.00056706
       3     bnd       2      14       0       0     1.52271373    -0.00869170
       4     bnd       2       3       0       0     1.35976614     0.01588123
       5     bnd       3       4       0       0     1.45719009    -0.01197755
       6     bnd       4      22       0       0     1.07987883     0.00674355
       7     bnd       4       5       0       0     1.23094012     0.02678137
       8     bnd       5      23       0       0     1.73478097     0.00085127
       9     bnd       8      10       0       0     1.08337450    -0.00020276
      10     bnd       7      10       0       0     1.08169850    -0.00079802
      11     bnd       9      10       0       0     1.08286307    -0.00029359
      12     bnd      11      21       0       0     1.07672206     0.00256473
      13     bnd      11      12       0       0     1.39854092    -0.00110717
      14     bnd      12      13       0       0     1.39812373    -0.00169972
      15     bnd      13      14       0       0     1.40096751    -0.00025771
      16     bnd      14      15       0       0     1.40084873    -0.00130605
      17     bnd      15      19       0       0     1.07581868     0.00250807
      18     bnd      11      16       0       0     1.39919527    -0.00082950
      19     bnd      15      16       0       0     1.39773438    -0.00003649
      20     bnd      16      20       0       0     1.07673138     0.00265989
      21     bnd      12      17       0       0     1.07669521     0.00260039
      22     bnd      13      18       0       0     1.07672355     0.00261766
      23     bnd       4      23       0       0     2.53189809     0.01282689
      24     bnd      23      25       0       0     1.63617959     0.00298229
      25     bnd      23      24       0       0     1.63704013     0.00167063
      26     bnd      23      26       0       0     1.63433273     0.00388567
      27     bnd       2      10       0       0     2.61605471    -0.57122277
      28     bnd      10      14       0       0     2.89061921    -0.08250702
      29     bnd      10      15       0       0     3.09171883     0.02871539
      30     ang       6       2      14       0   116.53696352    -0.02216896
      31     ang       6       2       3       0   120.17412421    -0.01121310
      32     ang       6       2      10       0    85.00708040     0.01431374
      33     ang      14       2       3       0   122.37806704     0.01085106
      34     ang      14       2      10       0    84.18840556     0.15601538
      35     ang       3       2      10       0   109.52459349    -0.05722850
      36     ang       1       3       2       0   120.80425425     0.00298166
      37     ang       1       3       4       0   116.37984439     0.00126151
      38     ang       2       3       4       0   122.81494418    -0.00395042
      39     ang       3       4      22       0   115.08904720     0.00365068
      40     ang       3       4       5       0   125.00545770    -0.00284303
      41     ang       3       4      23       0   162.83013644    -0.00108319
      42     ang      22       4       5       0   119.90181837    -0.00084086
      43     ang      22       4      23       0    81.98594981    -0.00226488
      44     ang       5       4      23       0    37.93419398     0.00071069
      45     ang       4       5      23       0   116.20352835    -0.00663161
      46     ang       8      10       7       0   118.73918446    -0.00233867
[...]
    18     H       0.000159   0.001177  -0.000247
    19     H       0.000280  -0.000170   0.000118
    20     H      -0.000076   0.000017  -0.000023
    21     H       0.000125   0.000054   0.000014
    22     H       0.070601  -0.992211   0.050533
    23    Al       0.000184   0.000373  -0.000040
    24     F       0.000088  -0.000189  -0.000109
    25     F       0.000055  -0.000152   0.000116
    26     F      -0.000101  -0.000027   0.000011
 
 Mode:    69      Frequency (cm-1):     3064.5128     Intensity (km/mol):        1.4377
 Index  Atom      ---- Displacements (x/y/z) ----
     1     H       0.000039   0.000151  -0.000117
     2     C      -0.000064   0.003437  -0.000712
     3     C       0.000021  -0.000026   0.000113
     4     C       0.000233  -0.000303   0.000033
     5     O      -0.000117   0.000031   0.000005
     6     H       0.001602  -0.040703   0.008188
     7     H       0.452360  -0.311804   0.140686
     8     H      -0.502027  -0.185391   0.136729
     9     H       0.076490   0.596290  -0.098898
    10     C      -0.002373  -0.008460  -0.015374
    11     C      -0.000004   0.000008  -0.000011
    12     C       0.000075  -0.000047   0.000007
    13     C      -0.000053   0.000041   0.000058
    14     C      -0.000026   0.000094   0.000163
    15     C       0.000006  -0.000101   0.000066
    16     C       0.000034   0.000076  -0.000023
    17     H      -0.000689   0.000536  -0.000151
    18     H       0.000099  -0.000020   0.000033
    19     H      -0.000382   0.000310  -0.000041
    20     H      -0.000033  -0.000821   0.000216
    21     H       0.000249   0.000119   0.000056
    22     H      -0.000451   0.003603  -0.000062
    23    Al       0.000019   0.000007   0.000005
    24     F      -0.000005  -0.000004  -0.000007
    25     F      -0.000005  -0.000002   0.000001
    26     F      -0.000005   0.000002  -0.000003
 
 Mode:    70      Frequency (cm-1):     3115.2635     Intensity (km/mol):        3.4604
 Index  Atom      ---- Displacements (x/y/z) ----
     1     H       0.008494  -0.102319   0.004864
     2     C       0.003844  -0.081982   0.014287
     3     C      -0.002966   0.009241   0.000131
     4     C      -0.000958  -0.001296   0.000212
     5     O       0.000348  -0.000001  -0.000082
     6     H      -0.033621   0.959157  -0.169266
     7     H       0.029843  -0.019602   0.009181
     8     H      -0.031795  -0.011242   0.008539
     9     H       0.000594   0.005530  -0.002540
    10     C       0.000110   0.002245  -0.001857
    11     C      -0.001410  -0.000544  -0.000059
    12     C       0.002691  -0.002462   0.000814
    13     C       0.001479   0.013584  -0.002556
    14     C       0.002015  -0.000236   0.000207
    15     C       0.002589  -0.001422   0.000596
    16     C       0.000177   0.001338  -0.000251
    17     H      -0.039522   0.027651  -0.010362
    18     H      -0.017702  -0.154580   0.028949
    19     H      -0.028858   0.021005  -0.008016
    20     H      -0.002117  -0.017741   0.003434
    21     H       0.017005   0.008202   0.000366
    22     H       0.002103   0.016847  -0.001086
    23    Al       0.000004  -0.000016   0.000001
    24     F      -0.000006   0.000004   0.000005
    25     F      -0.000006   0.000004  -0.000004
    26     F       0.000001   0.000004  -0.000001
 
 Mode:    71      Frequency (cm-1):     3129.3085     Intensity (km/mol):        2.9848
 Index  Atom      ---- Displacements (x/y/z) ----
     1     H      -0.000278   0.009137  -0.000697
     2     C      -0.000346   0.012803  -0.002193
     3     C       0.000212  -0.000952  -0.000003
     4     C       0.000132   0.000308  -0.000025
     5     O      -0.000058  -0.000007   0.000013
     6     H       0.002896  -0.150979   0.026570
     7     H      -0.006071   0.003990  -0.001874
     8     H       0.005792   0.002164  -0.001659
     9     H      -0.000091  -0.000028   0.000265
    10     C       0.000042  -0.000545   0.000327
    11     C      -0.028335  -0.013110  -0.000719
    12     C       0.033642  -0.024616   0.009028
    13     C       0.004695   0.058103  -0.011044
    14     C       0.001718  -0.000019   0.000150
    15     C       0.006407  -0.005930   0.002036
    16     C       0.002631   0.022628  -0.004316
    17     H      -0.409009   0.287291  -0.107715
    18     H      -0.066276  -0.678214   0.128305
    19     H      -0.084401   0.061769  -0.023289
    20     H      -0.027594  -0.269091   0.051800
    21     H       0.338549   0.157845   0.008372
    22     H      -0.000257  -0.003352   0.000201
    23    Al      -0.000005   0.000005  -0.000000
    24     F       0.000003  -0.000002  -0.000001
    25     F       0.000003  -0.000001   0.000001
    26     F       0.000001  -0.000002  -0.000000
 
 Mode:    72      Frequency (cm-1):     3136.2412     Intensity (km/mol):        0.1204
 Index  Atom      ---- Displacements (x/y/z) ----
     1     H      -0.009032   0.098280  -0.003867
     2     C      -0.000421   0.003860  -0.000566
     3     C       0.000832  -0.008751   0.000346
     4     C       0.000426   0.000024  -0.000083
     5     O      -0.000100   0.000014   0.000022
     6     H      -0.000218  -0.042683   0.007581
     7     H      -0.002257   0.001433  -0.000843
     8     H       0.001094   0.000541  -0.000371
     9     H       0.000119   0.001848  -0.000336
    10     C       0.000072  -0.000342   0.000141
    11     C       0.035789   0.017736   0.000660
    12     C      -0.000112  -0.002498   0.000458
    13     C       0.004397   0.044462  -0.008342
    14     C       0.001016  -0.000719   0.000222
    15     C      -0.019584   0.015091  -0.005547
    16     C      -0.005905  -0.052001   0.009965
    17     H      -0.013377   0.011763  -0.003921
    18     H      -0.050816  -0.511749   0.096666
    19     H       0.242389  -0.173719   0.065637
    20     H       0.063291   0.611984  -0.117825
    21     H      -0.426023  -0.199270  -0.010320
    22     H      -0.000300   0.000473  -0.000024
    23    Al       0.000012   0.000007  -0.000004
    24     F      -0.000004  -0.000003  -0.000001
    25     F      -0.000002  -0.000003   0.000004
    26     F      -0.000005   0.000001   0.000001
 
 Mode:    73      Frequency (cm-1):     3145.3216     Intensity (km/mol):        6.6497
 Index  Atom      ---- Displacements (x/y/z) ----
     1     H      -0.020030   0.208898  -0.007957
     2     C      -0.000648  -0.005731   0.001042
     3     C       0.001889  -0.017997   0.000713
     4     C       0.000560  -0.000454  -0.000083
     5     O      -0.000022   0.000036   0.000003
     6     H      -0.001315   0.071474  -0.012261
     7     H       0.002402  -0.001518   0.000653
     8     H      -0.003116  -0.001066   0.000874
     9     H      -0.000031  -0.000470  -0.000061
    10     C       0.000068   0.000292  -0.000060
    11     C      -0.038335  -0.015444  -0.001432
    12     C       0.034784  -0.021331   0.008560
    13     C      -0.003729  -0.031792   0.005893
    14     C      -0.001640  -0.000368  -0.000093
    15     C      -0.028331   0.022368  -0.008145
    16     C      -0.001684  -0.035109   0.007006
    17     H      -0.385053   0.265659  -0.100596
    18     H       0.035675   0.356224  -0.067161
    19     H       0.343045  -0.247659   0.093509
    20     H       0.039092   0.400480  -0.077340
    21     H       0.431567   0.198469   0.011066
    22     H      -0.000284   0.005924  -0.000360
    23    Al      -0.000011  -0.000010   0.000003
    24     F       0.000001   0.000006   0.000002
    25     F       0.000000   0.000005  -0.000004
    26     F       0.000002   0.000001  -0.000001
 
 Mode:    74      Frequency (cm-1):     3151.8332     Intensity (km/mol):        3.9546
 Index  Atom      ---- Displacements (x/y/z) ----
     1     H       0.065806  -0.696423   0.027590
     2     C       0.002056   0.004976  -0.001302
     3     C      -0.006150   0.060201  -0.002310
     4     C      -0.002063   0.000748   0.000357
     5     O       0.000241  -0.000096  -0.000052
     6     H       0.004070  -0.073137   0.012314
     7     H      -0.001736   0.001322  -0.000079
     8     H       0.003573   0.001098  -0.000844
     9     H       0.000134  -0.000178   0.000290
    10     C      -0.000146  -0.000230  -0.000033
    11     C       0.011698   0.007994  -0.000224
    12     C       0.030797  -0.021131   0.008023
    13     C      -0.003251  -0.015547   0.002696
    14     C      -0.000430   0.001954  -0.000360
    15     C       0.028499  -0.019387   0.007486
    16     C      -0.004505  -0.027230   0.005025
    17     H      -0.344567   0.240264  -0.090409
    18     H       0.019060   0.170379  -0.031890
    19     H      -0.315945   0.224969  -0.085712
    20     H       0.033320   0.307225  -0.058976
    21     H      -0.141304  -0.068915  -0.002824
    22     H       0.000551  -0.013869   0.000969
    23    Al       0.000015   0.000008  -0.000003
    24     F       0.000000  -0.000009  -0.000004
    25     F      -0.000001  -0.000006   0.000003
    26     F       0.000000  -0.000002   0.000000
 
 Mode:    75      Frequency (cm-1):     3156.6107     Intensity (km/mol):       10.7070
 Index  Atom      ---- Displacements (x/y/z) ----
     1     H       0.049096  -0.519660   0.020849
     2     C       0.001352   0.004498  -0.001097
     3     C      -0.004677   0.044656  -0.001677
     4     C      -0.001410   0.000579   0.000246
     5     O       0.000115  -0.000067  -0.000026
     6     H       0.003148  -0.060849   0.010357
     7     H      -0.002505   0.001836  -0.000502
     8     H       0.002672   0.001002  -0.000649
     9     H       0.000365   0.002319  -0.000151
    10     C      -0.000033  -0.000462   0.000052
    11     C      -0.043916  -0.021726  -0.000826
    12     C      -0.037631   0.027524  -0.010164
    13     C       0.003789   0.018731  -0.003275
    14     C       0.000565  -0.000606   0.000221
    15     C      -0.014250   0.011119  -0.004106
    16     C       0.000283  -0.019518   0.004024
    17     H       0.422343  -0.296726   0.111355
    18     H      -0.022680  -0.205177   0.038433
    19     H       0.175911  -0.126436   0.047330
    20     H       0.019188   0.213435  -0.041502
    21     H       0.492162   0.230686   0.011880
    22     H       0.000159  -0.010869   0.000777
    23    Al       0.000033   0.000017  -0.000009
    24     F      -0.000007  -0.000013  -0.000004
    25     F      -0.000005  -0.000010   0.000010
    26     F      -0.000008  -0.000001   0.000002
 
 Mode:    76      Frequency (cm-1):     3162.1122     Intensity (km/mol):        4.6186
 Index  Atom      ---- Displacements (x/y/z) ----
     1     H      -0.038067   0.407566  -0.016816
     2     C      -0.000771  -0.001349   0.000603
     3     C       0.003503  -0.034988   0.001294
     4     C       0.001272  -0.000280  -0.000236
     5     O      -0.000221   0.000061   0.000048
     6     H      -0.003335   0.020354  -0.003574
     7     H       0.002094  -0.001663   0.000496
     8     H      -0.000750  -0.000361   0.000161
     9     H      -0.000331  -0.001681   0.000139
    10     C      -0.000095   0.000317  -0.000072
    11     C      -0.024675  -0.010282  -0.000866
    12     C      -0.013187   0.010338  -0.003684
    13     C       0.000746   0.005116  -0.000942
    14     C       0.000879   0.001799  -0.000325
    15     C       0.049991  -0.033948   0.013233
    16     C      -0.005109  -0.040808   0.007753
    17     H       0.149351  -0.105673   0.039535
    18     H      -0.005359  -0.052095   0.009713
    19     H      -0.559516   0.397387  -0.150486
    20     H       0.046151   0.445565  -0.085714
    21     H       0.263724   0.121219   0.006851
    22     H       0.000083   0.007535  -0.000597
    23    Al       0.000011   0.000003  -0.000002
    24     F      -0.000005   0.000002   0.000000
    25     F      -0.000004   0.000000   0.000003
    26     F      -0.000007   0.000004   0.000001
 
 Mode:    77      Frequency (cm-1):     3237.9826     Intensity (km/mol):        0.8971
 Index  Atom      ---- Displacements (x/y/z) ----
     1     H      -0.000533   0.002678  -0.000210
     2     C       0.000051  -0.002146   0.000469
     3     C      -0.000018  -0.000090  -0.000101
     4     C      -0.000077  -0.000220   0.000001
     5     O       0.000024   0.000006   0.000002
     6     H      -0.000873   0.027562  -0.005887
     7     H      -0.468407   0.301553  -0.149411
     8     H       0.242153   0.070383  -0.064719
     9     H       0.101827   0.752562  -0.110296
    10     C       0.010542  -0.094740   0.027503
    11     C      -0.000008  -0.000024   0.000007
    12     C       0.000046   0.000018   0.000008
    13     C      -0.000029  -0.000325   0.000022
    14     C       0.000017  -0.000011  -0.000052
    15     C       0.000221  -0.000060   0.000014
    16     C      -0.000031   0.000003  -0.000008
    17     H      -0.000350   0.000201  -0.000100
    18     H       0.000152   0.003294  -0.000672
    19     H      -0.001960   0.001499  -0.000455
    20     H      -0.000007   0.000057   0.000021
    21     H       0.000081   0.000055  -0.000013
    22     H      -0.000000   0.002155  -0.000058
    23    Al       0.000002  -0.000002  -0.000006
    24     F      -0.000003   0.000000   0.000004
    25     F      -0.000000  -0.000000   0.000003
    26     F      -0.000001   0.000001   0.000002
 
 Mode:    78      Frequency (cm-1):     3251.2680     Intensity (km/mol):        0.4991
 Index  Atom      ---- Displacements (x/y/z) ----
     1     H      -0.000097   0.001064  -0.000136
     2     C      -0.000045  -0.000385   0.000287
     3     C       0.000179  -0.000167   0.000071
     4     C       0.000066  -0.000128  -0.000003
     5     O      -0.000003   0.000009  -0.000004
     6     H      -0.000333   0.005275  -0.000827
     7     H       0.457627  -0.322984   0.157432
     8     H       0.713671   0.262849  -0.209647
     9     H       0.005517   0.168911  -0.024003
    10     C      -0.099051  -0.009056   0.006464
    11     C       0.000004   0.000017   0.000009
    12     C       0.000010  -0.000022   0.000005
    13     C       0.000129  -0.000038  -0.000069
    14     C      -0.000078  -0.000077  -0.000190
    15     C      -0.000064   0.000152  -0.000125
    16     C       0.000020   0.000023  -0.000000
    17     H      -0.000235   0.000135  -0.000053
    18     H      -0.000082  -0.000206   0.000186
    19     H       0.001019  -0.000828   0.000425
    20     H      -0.000053  -0.000311   0.000063
    21     H      -0.000161  -0.000078  -0.000002
    22     H      -0.000066   0.001316  -0.000162
    23    Al       0.000008  -0.000005  -0.000005
    24     F      -0.000007   0.000002   0.000004
    25     F      -0.000002   0.000000   0.000003
    26     F      -0.000003   0.000003   0.000001

PES point character: Geometry corresponds to a stationary point on the PES with >1 negative frequencies.




 ============================
 Statistical Thermal Analysis  ***  ideal gas assumed  ***
 ============================
  
 Pressure:                  1.000000 atm.
 Temperature:             298.150000 K



 Moments of Inertia [amu*bohr^2] and principal axis
 ==================================================

        1351.5670      11212.1465      11402.4314
 ------------------------------------------------
          -0.9672         -0.0736         -0.2430
          -0.2112          0.7645          0.6090
           0.1409          0.6404         -0.7550


 The rotational contribution to the molecular entropy includes
 a term, dependent on the symmetry number sigma. The results 
 reported below were computed using sigma = 1, determined from
 the point group symmetry of the input geometry (NOSYM). 
 If this is not the correct symmetry, try symmetrizing the molecule before
 running the calculation (note: linear molecules should be aligned along one
 of the Cartesian axes).
 Contributions from frequencies below 20 1/cm are not included in vibrational sums.
 Their contributions, if any, are reported separately.


     Temp                                                        Transl      Rotat     Vibrat     Total
     ----                                                        ------      -----     ------     -----

     298.15   Entropy (cal/mol-K):                               42.214     33.513     52.807    128.534
              Nuclear Internal Energy (kcal/mol):                 0.889      0.889    122.422    124.200
              Constant Volume Heat Capacity (cal/mol-K):          2.981      2.981     50.199     56.160
          (c) Constant Volume Heat Capacity (cal/mol-K):          2.981      2.981     45.344     51.305

       Summary of energy terms
                                                   hartree              eV         kcal/mol           kJ/mol
                                      --------------------     -----------       ----------      -----------
      Energy from Engine:               -5.552880125280414       -151.1016         -3484.49        -14579.08
      Nuclear Internal Energy:           0.197924831066908          5.3858           124.20           519.65
  (c) Nuclear Internal Energy:           0.195465486062586          5.3189           122.66           513.19
      Internal Energy U:                -5.354955294213505       -145.7157         -3360.29        -14059.43
      pV/n = RT:                         0.000944186013486          0.0257             0.59             2.48
      Enthalpy H:                       -5.354011108200019       -145.6901         -3359.69        -14056.95
      -T*S:                             -0.061070847873046         -1.6618           -38.32          -160.34
  (c) -T*S:                             -0.058445811106093         -1.5904           -36.68          -153.45
      Gibbs free energy:                -5.415081956073065       -147.3519         -3398.02        -14217.30
 
 
 
  (c) The properties marked with this symbol have been corrected using 'low vibrational frequency free rotor
      interpolation corrections'. For those terms all positive frequencies are used (also ones below 20 1/cm),
      but the contribution to the partition function of small vibrational frequencies is modified as described
      in the following paper:
      S. Grimme, 'Supramolecular Binding Thermodynamics by Dispersion-Corrected Density Functional Theory'
      (Chem. Eur. J. 2012, 18, 9955-9964)
      Configuration: Dampener Frequency          :   100.000 1/cm
                     Dampener Alpha              :     4.000
                     Averaging Moment of Inertia : 1.000E-44 kg m2

--------------
Atomic charges
--------------
  Index   Atom    Charge
      1      H   -0.2001
      2      C    0.2283
      3      C    0.2209
      4      C    0.7211
      5      O   -0.6025
      6      H   -0.1842
      7      H   -0.1373
      8      H   -0.1425
      9      H   -0.1514
     10      C    0.5469
     11      C    0.2563
     12      C    0.2486
     13      C    0.3065
     14      C    0.0101
     15      C    0.3004
     16      C    0.2502
     17      H   -0.2375
     18      H   -0.2556
     19      H   -0.2564
     20      H   -0.2366
     21      H   -0.2333
     22      H   -0.2610
     23     Al    1.7324
     24      F   -0.6479
     25      F   -0.6432
     26      F   -0.6322


Dipole moment vector    (Debye):   -13.27056300   -1.87465570    3.47851390
              magnitude (Debye):    13.84637986


ERROR: Transition state search failed. (Converged, but did not find a transition state.)


AMS application finished. Exiting.
NORMAL TERMINATION
     Total cpu time:  152192.51
  Total system time:     922.95
 Total elapsed time:  307921.27
 WARNING: total elapsed time is much higher than the (CPU+system) time. 
 Make sure the machine is not oversubscribed and has enough memory, SCM_TMPDIR p
 oints to a fast file system, and the network is fast enough.
