

 Parallel Execution: Process Information
 ==============================================================================
 Rank   Node Name                              NodeID   MyNodeRank  NodeMaster
    0   node120                                   0          0          0
    1   node120                                   0          1         -1
    2   node120                                   0          2         -1
    3   node120                                   0          3         -1
 ==============================================================================


May use up to 122928MB of RAM as shared memory on node 0

 *******************************************************************************
 *                                                                             *
 *  --------------------------------                                           *
 *   Amsterdam Modeling Suite (AMS)              2021.102                      *
 *  --------------------------------                                           *
 *                                               r95042 2021-06-07             *
 *                                                                             *
 *                                                                             *
 *                              =================                              *
 *                              |               |                              *
 *                              |     A M S     |                              *
 *                              |               |                              *
 *                              =================                              *
 *                                                                             *
 *                                                                             *
 *   Online information and documentation:  https://www.scm.com/support/       *
 *   E-mail:  support@scm.com   info@scm.com                                   *
 *                                                                             *
 *   Scientific publications using AMS results must be properly referenced     *
 *   See the User Manuals (or the web site) for recommended citations          *
 *   The terms and conditions of the End User License Agreement apply to       *
 *   the use of AMS, https://www.scm.com/license-terms/                        *
 *                                                                             *
 **********************  x86_64_linux_intel / intelmpi  ************************
 
 Licensed to: VU/FEW (+ SARA) / ALGEMEEN / Amsterdam / THE NETHERLANDS
 SCM User ID: u7668
  
 AMS 2021.102  RunTime: Feb02-2022 16:42:11  ShM Nodes: 1  Procs: 4

 AMS jobname: 44.achiral_catalyst.H_tBu_BF3.P2
 AMS jobid  : 1027197462

 Start   directory: /scistor/tc/yhk800/MasterProject/calculations/achiral_catalyst_H_tBu_BF3/44.achiral_catalyst.H_tBu_BF3.P2/
 Results directory: /scistor/tc/yhk800/MasterProject/calculations/achiral_catalyst_H_tBu_BF3/44.achiral_catalyst.H_tBu_BF3.P2/
 Scratch directory: /scratch/5503/amstmp_44.achiral_catalyst.H_tBu_BF3.P2_kid0.1027197462/


 Communication costs MPI_COMM_WORLD:      1.514 usec per message,   0.0056 usec per 8-byte item
 Communication costs for intra-node:      1.520 usec per message,   0.0054 usec per 8-byte item

 RNG seed: 1958685693 -1520707032 1243980234 -217413984 60906795 -1684494189 -970856719 -56167147



                      ************************************************************************
                      *  ADF 2021.102  RunTime: Feb02-2022 16:42:12  ShM Nodes: 1  Procs: 4  *
                      ************************************************************************
  
       ***************************
       *  GEOMETRY OPTIMIZATION  *
       ***************************

Optimization Method                    Quasi Newton
Optimization Coordinates               Delocalized Coordinates
Optimize lattice                       F
 
 ------------------------------------------------------
 Convergence criteria (Hartree,Angstrom)
 ------------------------------------------------------
 Maximum gradient               0.001000000000
 Maximum rms gradient           0.000666666667
 Maximum step allowed           0.010000000000
 Maximum rms step allowed       0.006666666667
 Maximum energy change allowe   0.000290000000
 Maximum stress energy allowe   0.000500000000
 
Initial model Hessian                  Automatic Hessian
 
------------------------------------
Quasi-Newton Optimizer Parameters
------------------------------------
Hessian Update Method                  BFGS
Maximum number of steps                  250
First GDIIS cycle                          0
Maximum GDIIS vectors                      0
Trust radius (bohr)                        0.200000
Trust radius varies                        T
Constraints converged at all steps         T
Use projector                              T
 
 Rigid motions settings for: old optimizer
 Atomic rotations (x,y,z):     T T T
 Atomic translations (x,y,z):  T T T
 Tolerance:                   1.000000000000000E-006
 
--------
Geometry
--------
Formula: C8H16BF3O
Atoms
  Index Symbol   x (angstrom)   y (angstrom)   z (angstrom)
      1      H     0.83345051    -1.35209109     1.20167740
      2      C    -0.83092072     0.03538951     0.93442801
      3      C     0.35139657    -0.78131674     0.40158875
      4      C     1.39689343     0.07225735    -0.26739819
      5      O     2.40703452    -0.34587328    -0.75774611
      6      H    -1.19392452     0.69150371     0.13740680
      7      H     0.00939092    -1.50634328    -0.34451216
      8      H    -0.05768346     0.24518214     2.94899716
      9      C    -0.44138171     0.87842746     2.14736270
     10      H     0.32560687     1.60312788     1.87585802
     11      H    -1.31355949     1.41759590     2.51749654
     12      C    -2.27071970    -1.82616668     0.11582029
     13      C    -1.96962468    -0.92743114     1.31904430
     14      C    -3.20179241    -0.09637428     1.68950211
     15      C    -1.51005423    -1.76760310     2.51446803
     16      H    -1.27318070    -1.12277223     3.36148834
     17      H    -3.07548253    -2.52473552     0.35095683
     18      H    -1.38428828    -2.39825896    -0.16042075
     19      H    -2.57404526    -1.22292570    -0.74059856
     20      H    -4.03273065    -0.74631316     1.96887984
     21      H    -3.51153452     0.51878769     0.84392839
     22      H    -2.97657760     0.55997399     2.53083710
     23      H    -2.29343234    -2.46452553     2.81703817
     24      H    -0.61838064    -2.33929178     2.25475744
     25      H     1.16279025     1.11629180    -0.25802988
     26      B     3.62898812    -1.04016615    -1.71419100
     27      F     2.75119537    -1.28653287    -2.65681860
     28      F     3.85452465    -1.93145899    -0.77904726
     29      F     4.28124433     0.09749341    -1.70670713
 
Total System Charge             0.00000
 
 
----------------
ADF Engine Input
----------------
 
 NumericalQuality VeryGood
 SCF
 Converge 1.0e-6
 Iterations 99
 End
 SYMMETRY NOSYM
 XC
 GGA OLYP
 End
 basis
 core None
 type TZ2P
 End
 

 Title: *** (NO TITLE) ***

 Using automatic Hessian for delocalized coordinates.
 *** GOStep1 ***

 Energy gradients wrt nuclear displacements
 ==========================================

     Atom      Cartesian (a.u./angstrom)
                 X         Y         Z
 ----------------------------------------
     1 H    -0.004654  0.000935  0.003852
     2 C    -0.011530  0.014937 -0.014754
     3 C    -0.013576 -0.021192  0.008710
     4 C     0.037470  0.035804 -0.034498
     5 O     0.087757 -0.054471 -0.061227
     6 H     0.000752 -0.003408  0.004321
     7 H    -0.014701 -0.004666 -0.000415
     8 H    -0.006288 -0.009024  0.000655
     9 C    -0.010094 -0.012058  0.011402
    10 H    -0.003935 -0.007191 -0.005374
    11 H    -0.009292 -0.007361 -0.003165
    12 C     0.012899  0.004430 -0.008728
    13 C     0.005651 -0.000357  0.005137
    14 C     0.003283  0.009182 -0.001396
    15 C     0.011398  0.007157 -0.001381
    16 H     0.004699  0.010278 -0.005017
    17 H     0.003198  0.003669  0.002681
    18 H     0.014545  0.011043  0.002484
    19 H     0.002532  0.000067  0.006906
    20 H     0.005239 -0.000427 -0.001471
    21 H     0.004950 -0.004011  0.002571
    22 H     0.011118  0.001430 -0.001238
    23 H     0.000822  0.003992 -0.002444
    24 H     0.001518  0.006963 -0.006683
    25 H     0.000225 -0.054333  0.009863
    26 B     0.055089 -0.039452 -0.057416
    27 F     0.004514  0.048447  0.109647
    28 F    -0.082435  0.098131 -0.014447
    29 F    -0.111157 -0.038515  0.051422
 ----------------------------------------
 Mulliken charges used for AMS results%charges...
 
----------------------------------------------------------------------
Geometry Convergence after Step   1       (Hartree/Angstrom,Angstrom)
----------------------------------------------------------------------
current energy                               -5.64654000 Hartree
energy change                      -5.64654000     0.00029000    F
constrained gradient max            0.11116029     0.00100000    F
constrained gradient rms            0.03043231     0.00066667    F
gradient max                        0.11116029
gradient rms                        0.03043231
cart. step max                      0.15297114     0.01000000    F
cart. step rms                      0.03656052     0.00666667    F
 
 
--------
Geometry
--------
Formula: C8H16BF3O
Atoms
  Index Symbol   x (angstrom)   y (angstrom)   z (angstrom)
      1      H     0.84788391    -1.32943066     1.21022804
      2      C    -0.84206545     0.03266605     0.94306008
      3      C     0.35620781    -0.76785128     0.40955942
      4      C     1.39247368     0.09783591    -0.26237540
      5      O     2.41627163    -0.31333921    -0.75399731
      6      H    -1.21390961     0.68494144     0.14555912
      7      H     0.03069793    -1.49866735    -0.33607634
      8      H    -0.03622456     0.25968265     2.94957330
      9      C    -0.43253113     0.88493757     2.14869765
     10      H     0.33238462     1.60834764     1.86356589
     11      H    -1.29421234     1.43094388     2.53166933
     12      C    -2.31428756    -1.83766740     0.13139183
     13      C    -1.99828569    -0.93594814     1.33343783
     14      C    -3.22830989    -0.09476274     1.70117383
     15      C    -1.55181681    -1.78622189     2.53200399
     16      H    -1.31109866    -1.15142953     3.38473023
     17      H    -3.12712963    -2.52615529     0.37200656
     18      H    -1.44162117    -2.42569702    -0.15114175
     19      H    -2.61518244    -1.23473624    -0.72755550
     20      H    -4.06502633    -0.73907660     1.97934945
     21      H    -3.53408666     0.52212014     0.85403997
     22      H    -3.00694121     0.56231852     2.54242056
     23      H    -2.34556380    -2.47474104     2.82933022
     24      H    -0.66661191    -2.37103243     2.27881943
     25      H     1.14862027     1.14982331    -0.26171578
     26      B     3.67501495    -1.00945255    -1.72200281
     27      F     2.87800534    -1.32082254    -2.73705338
     28      F     4.00749579    -1.95189096    -0.84799623
     29      F     4.41305102     0.09115612    -1.79463565
 
Total System Charge             0.00000
 
 *** GOStep2 ***

 Energy gradients wrt nuclear displacements
 ==========================================

     Atom      Cartesian (a.u./angstrom)
                 X         Y         Z
 ----------------------------------------
     1 H    -0.004292  0.001713  0.002975
     2 C    -0.007554  0.017465 -0.017563
     3 C    -0.009016 -0.020341  0.009032
     4 C     0.023192  0.033551 -0.024491
     5 O     0.045383 -0.031134 -0.030445
     6 H    -0.000120 -0.002661  0.003206
     7 H    -0.011223 -0.000988  0.001278
     8 H    -0.005502 -0.005958 -0.000165
     9 C    -0.004490 -0.009218  0.012429
    10 H    -0.003017 -0.005816 -0.004623
    11 H    -0.007119 -0.006916 -0.002918
    12 C     0.010123 -0.000410 -0.008276
    13 C    -0.003253 -0.003720  0.005575
    14 C     0.001088  0.008569  0.000120
    15 C     0.009983  0.003639  0.001767
    16 H     0.003667  0.007153 -0.005134
    17 H     0.002458  0.002525  0.002219
    18 H     0.009278  0.009630  0.002222
    19 H     0.002308  0.000515  0.005535
    20 H     0.003981 -0.000406 -0.000892
    21 H     0.004279 -0.003055  0.001819
    22 H     0.008939  0.000697 -0.001886
    23 H     0.000474  0.003154 -0.001788
    24 H     0.000718  0.006312 -0.004950
    25 H    -0.003066 -0.039078  0.010351
    26 B     0.023533 -0.018502 -0.029196
    27 F     0.004720  0.025055  0.056930
    28 F    -0.041107  0.048355 -0.008289
    29 F    -0.054366 -0.020130  0.025158
 ----------------------------------------
 Mulliken charges used for AMS results%charges...

 dE(predicted):    -0.45057E-01, dE(actual):    -0.37121E-01, Trust radius:    0.400000, all in a.u.
 
----------------------------------------------------------------------
Geometry Convergence after Step   2       (Hartree/Angstrom,Angstrom)
----------------------------------------------------------------------
current energy                               -5.68366059 Hartree
energy change                      -0.03712059     0.00029000    F
constrained gradient max            0.05692704     0.00100000    F
constrained gradient rms            0.01677043     0.00066667    F
gradient max                        0.05692704
gradient rms                        0.01677043
cart. step max                      0.21092738     0.01000000    F
cart. step rms                      0.08216821     0.00666667    F
 
 
--------
Geometry
--------
Formula: C8H16BF3O
Atoms
  Index Symbol   x (angstrom)   y (angstrom)   z (angstrom)
      1      H     0.96536475    -1.26565979     1.22335788
      2      C    -0.81937785    -0.00943856     0.97783310
      3      C     0.42268511    -0.74367092     0.42788026
      4      C     1.41018501     0.15368388    -0.27392323
      5      O     2.45105887    -0.23838016    -0.76692376
      6      H    -1.21210254     0.62256818     0.17093454
      7      H     0.15739144    -1.50474804    -0.31015256
      8      H     0.12812011     0.35326202     2.91942574
      9      C    -0.32693394     0.91930836     2.10619188
     10      H     0.42653609     1.62005324     1.73554996
     11      H    -1.13832698     1.51658010     2.52027092
     12      C    -2.41632661    -1.86146937     0.17391880
     13      C    -2.02815079    -0.96853176     1.37095144
     14      C    -3.25738129    -0.10194639     1.70925175
     15      C    -1.69893684    -1.87852447     2.57419563
     16      H    -1.46691833    -1.30232478     3.46983853
     17      H    -3.27936964    -2.48319009     0.42887945
     18      H    -1.61424051    -2.53671970    -0.12223888
     19      H    -2.68705655    -1.25438729    -0.69578886
     20      H    -4.11653707    -0.73455532     1.95066744
     21      H    -3.53438565     0.52961766     0.85959271
     22      H    -3.07884015     0.54623943     2.56723988
     23      H    -2.55649119    -2.51560309     2.80859707
     24      H    -0.85174274    -2.53533718     2.36527832
     25      H     1.14268266     1.22015010    -0.33906735
     26      B     3.75415195    -0.93744288    -1.74197183
     27      F     2.99606147    -1.35966711    -2.77773934
     28      F     4.19810282    -1.86242982    -0.86563080
     29      F     4.50398049     0.16841412    -1.92035212
 
Total System Charge             0.00000
 
 *** GOStep3 ***

 Energy gradients wrt nuclear displacements
 ==========================================

     Atom      Cartesian (a.u./angstrom)
                 X         Y         Z
 ----------------------------------------
     1 H    -0.002062  0.003134  0.000191
     2 C    -0.006147  0.008628 -0.008746
     3 C     0.005981 -0.004640  0.004998
     4 C     0.007605  0.013543 -0.007224
     5 O     0.031254 -0.019895 -0.019377
     6 H    -0.000252 -0.001043  0.002089
     7 H    -0.002440  0.004472  0.002428
     8 H    -0.002059  0.001515 -0.003262
     9 C     0.012968  0.000214  0.002738
    10 H    -0.000172 -0.000841 -0.000777
    11 H     0.000184 -0.003636 -0.002524
    12 C    -0.000883 -0.005349  0.000589
    13 C    -0.006767 -0.002681  0.000832
    14 C    -0.002114 -0.000043 -0.000119
    15 C    -0.001121 -0.004070  0.004518
    16 H    -0.000565 -0.001316 -0.003996
    17 H     0.000983 -0.000777  0.000128
    18 H    -0.001440  0.004406  0.001152
    19 H     0.000503  0.000916  0.002178
    20 H     0.000568  0.000144  0.000478
    21 H     0.001670 -0.001240  0.000136
    22 H     0.001586 -0.001651 -0.003051
    23 H     0.000350  0.000612  0.000108
    24 H    -0.001707  0.002462 -0.000482
    25 H    -0.002427 -0.010075  0.005976
    26 B    -0.001978 -0.000862 -0.004068
    27 F    -0.003960  0.006830  0.012239
    28 F    -0.013189  0.010125  0.003746
    29 F    -0.014369  0.001118  0.009102
 ----------------------------------------
 Mulliken charges used for AMS results%charges...

 dE(predicted):    -0.20311E-01, dE(actual):    -0.19033E-01, Trust radius:    0.800000, all in a.u.
 
----------------------------------------------------------------------
Geometry Convergence after Step   3       (Hartree/Angstrom,Angstrom)
----------------------------------------------------------------------
current energy                               -5.70269321 Hartree
energy change                      -0.01903261     0.00029000    F
constrained gradient max            0.03125361     0.00100000    F
constrained gradient rms            0.00655563     0.00066667    F
gradient max                        0.03125361
gradient rms                        0.00655563
cart. step max                      0.21307232     0.01000000    F
cart. step rms                      0.05272489     0.00666667    F
 
 
--------
Geometry
--------
Formula: C8H16BF3O
Atoms
  Index Symbol   x (angstrom)   y (angstrom)   z (angstrom)
      1      H     0.98832740    -1.20536304     1.23007400
      2      C    -0.82062717     0.02625586     1.00736024
      3      C     0.41801894    -0.70348760     0.43897325
      4      C     1.38241562     0.17125240    -0.31755742
      5      O     2.42691857    -0.23829562    -0.79172014
      6      H    -1.22202274     0.66148959     0.20524435
      7      H     0.15658685    -1.49156241    -0.27514077
      8      H     0.05366463     0.37520943     2.99036143
      9      C    -0.39193452     0.94565424     2.17202585
     10      H     0.35714415     1.67323136     1.84431988
     11      H    -1.22345241     1.52306809     2.57856191
     12      C    -2.38350761    -1.81357678     0.13479055
     13      C    -2.01748752    -0.95850357     1.36915917
     14      C    -3.25918578    -0.11782779     1.73962625
     15      C    -1.66424528    -1.89562618     2.54576381
     16      H    -1.44142671    -1.34532980     3.46255378
     17      H    -3.25132000    -2.44132695     0.35899265
     18      H    -1.58154112    -2.48732764    -0.17354791
     19      H    -2.64513437    -1.18587301    -0.72462487
     20      H    -4.11147915    -0.77235768     1.94714602
     21      H    -3.54699524     0.54816745     0.91881485
     22      H    -3.10261693     0.49518807     2.62931282
     23      H    -2.50965768    -2.55586894     2.76251436
     24      H    -0.80606454    -2.53547140     2.32032424
     25      H     1.10236855     1.23256453    -0.48477742
     26      B     3.75390967    -1.00358472    -1.73264913
     27      F     3.02084910    -1.57273943    -2.72534263
     28      F     4.28756676    -1.84357986    -0.81119504
     29      F     4.50413062     0.07147173    -2.07329749
 
Total System Charge             0.00000
 
 *** GOStep4 ***

 Energy gradients wrt nuclear displacements
 ==========================================

     Atom      Cartesian (a.u./angstrom)
                 X         Y         Z
 ----------------------------------------
     1 H    -0.001646  0.001588  0.000922
     2 C     0.004461  0.008910 -0.006112
     3 C     0.000007 -0.010436 -0.003811
     4 C     0.007139  0.004997 -0.000822
     5 O     0.012232 -0.012421 -0.009419
     6 H    -0.001786 -0.001336  0.000405
     7 H     0.000646  0.000782  0.000248
     8 H    -0.001096  0.000538 -0.001099
     9 C     0.000495  0.001614  0.006140
    10 H    -0.001505 -0.000088  0.001053
    11 H     0.000494  0.000144  0.001013
    12 C     0.003168 -0.002176 -0.001950
    13 C    -0.009239 -0.005324  0.002072
    14 C     0.000226  0.002148  0.000587
    15 C     0.001280 -0.000659  0.003389
    16 H     0.000337 -0.000748 -0.000720
    17 H     0.000848 -0.000340  0.000429
    18 H     0.000183  0.001904 -0.000699
    19 H    -0.000359  0.000201 -0.000109
    20 H     0.000293  0.000177  0.000610
    21 H     0.000114 -0.000105 -0.000157
    22 H     0.000167  0.000578 -0.000985
    23 H     0.000103  0.000530 -0.000143
    24 H    -0.000192  0.000455  0.000167
    25 H    -0.000998 -0.000465 -0.000232
    26 B    -0.021897  0.012874  0.013256
    27 F     0.001547 -0.002008 -0.002738
    28 F     0.002326 -0.002254  0.000236
    29 F     0.002652  0.000922 -0.001529
 ----------------------------------------
 Mulliken charges used for AMS results%charges...

 dE(predicted):    -0.35227E-02, dE(actual):    -0.27294E-02, Trust radius:    0.800000, all in a.u.
 
----------------------------------------------------------------------
Geometry Convergence after Step   4       (Hartree/Angstrom,Angstrom)
----------------------------------------------------------------------
current energy                               -5.70542261 Hartree
energy change                      -0.00272940     0.00029000    F
constrained gradient max            0.02189665     0.00100000    F
constrained gradient rms            0.00456189     0.00066667    F
gradient max                        0.02189665
gradient rms                        0.00456189
cart. step max                      0.13627435     0.01000000    F
cart. step rms                      0.04839446     0.00666667    F
 
 
--------
Geometry
--------
Formula: C8H16BF3O
Atoms
  Index Symbol   x (angstrom)   y (angstrom)   z (angstrom)
      1      H     1.00254479    -1.19617077     1.19668609
      2      C    -0.82788217     0.01050727     0.98883694
      3      C     0.40679211    -0.71256231     0.41173003
      4      C     1.34184658     0.16080513    -0.37780010
      5      O     2.41906143    -0.22201856    -0.80061834
      6      H    -1.23141601     0.64497085     0.18639580
      7      H     0.14552926    -1.51852433    -0.28405594
      8      H     0.06995522     0.38259951     2.95703728
      9      C    -0.37919480     0.94264980     2.13148366
     10      H     0.37650712     1.65397583     1.78113290
     11      H    -1.19992776     1.53877312     2.53410419
     12      C    -2.45901846    -1.78578863     0.13604935
     13      C    -2.02478973    -0.96042785     1.36827752
     14      C    -3.24438285    -0.11622850     1.79969506
     15      C    -1.65015563    -1.92590529     2.51293535
     16      H    -1.39197480    -1.39703510     3.43443630
     17      H    -3.35184506    -2.37145635     0.37670118
     18      H    -1.70022160    -2.49927202    -0.19535673
     19      H    -2.71134280    -1.14093491    -0.71351588
     20      H    -4.10086131    -0.76763698     2.00081387
     21      H    -3.54395092     0.58526091     1.01307259
     22      H    -3.06045049     0.45818289     2.71057296
     23      H    -2.49846160    -2.57866356     2.74245847
     24      H    -0.80904179    -2.57487746     2.24910767
     25      H     1.04313905     1.21388473    -0.57418903
     26      B     3.82194107    -0.98488000    -1.66678234
     27      F     3.13100633    -1.66495095    -2.61970575
     28      F     4.38278368    -1.72065147    -0.67492070
     29      F     4.51701322     0.10222536    -2.07851582
 
Total System Charge             0.00000
 
 *** GOStep5 ***

 Energy gradients wrt nuclear displacements
 ==========================================

     Atom      Cartesian (a.u./angstrom)
                 X         Y         Z
 ----------------------------------------
     1 H    -0.000869  0.000346  0.001639
     2 C     0.005474  0.004758 -0.002066
     3 C     0.001636 -0.003560 -0.000542
     4 C    -0.003917 -0.000386 -0.008609
     5 O     0.014079 -0.011363 -0.005608
     6 H    -0.000693 -0.000548  0.000346
     7 H     0.002412  0.001097  0.000155
     8 H    -0.000144 -0.000236 -0.000201
     9 C    -0.000106  0.000385  0.001994
    10 H    -0.000761  0.000432  0.000399
    11 H    -0.000070  0.000453  0.000851
    12 C     0.000242 -0.000684  0.000001
    13 C    -0.005740 -0.003634  0.000524
    14 C     0.000621  0.000083 -0.000696
    15 C     0.000303  0.000565  0.001226
    16 H     0.000217 -0.000111  0.000287
    17 H     0.000140 -0.000322  0.000236
    18 H    -0.000708  0.000227 -0.000355
    19 H    -0.000619  0.000053 -0.000292
    20 H    -0.000149 -0.000017  0.000483
    21 H    -0.000279 -0.000119 -0.000191
    22 H    -0.000013  0.000644 -0.000083
    23 H    -0.000138  0.000212 -0.000246
    24 H     0.000290 -0.000267  0.000019
    25 H     0.002215  0.002850  0.002432
    26 B    -0.022024  0.013906  0.013313
    27 F    -0.000169 -0.003033 -0.003772
    28 F     0.004157 -0.003845  0.001504
    29 F     0.004613  0.002115 -0.002746
 ----------------------------------------
 Mulliken charges used for AMS results%charges...

 dE(predicted):    -0.67301E-03, dE(actual):    -0.93895E-03, Trust radius:    0.800000, all in a.u.
 
----------------------------------------------------------------------
Geometry Convergence after Step   5       (Hartree/Angstrom,Angstrom)
----------------------------------------------------------------------
current energy                               -5.70636156 Hartree
energy change                      -0.00093895     0.00029000    F
constrained gradient max            0.02202126     0.00100000    F
constrained gradient rms            0.00422975     0.00066667    F
gradient max                        0.02202126
gradient rms                        0.00422975
cart. step max                      0.20060235     0.01000000    F
cart. step rms                      0.05889830     0.00666667    F
 
 
--------
Geometry
--------
Formula: C8H16BF3O
Atoms
  Index Symbol   x (angstrom)   y (angstrom)   z (angstrom)
      1      H     1.02502428    -1.17497469     1.19072373
      2      C    -0.83080264     0.00008188     0.98639432
      3      C     0.40342298    -0.71556728     0.41037143
      4      C     1.30751677     0.15458693    -0.41275126
      5      O     2.40701122    -0.19946591    -0.80477693
      6      H    -1.22825242     0.63336940     0.17898816
      7      H     0.14404084    -1.54432390    -0.26184916
      8      H     0.07546182     0.40269548     2.94508704
      9      C    -0.36700595     0.94820463     2.10429001
     10      H     0.40296168     1.63464031     1.73287108
     11      H    -1.17693646     1.57035587     2.48964269
     12      C    -2.51143798    -1.73696286     0.12389044
     13      C    -2.02655851    -0.95966240     1.36778193
     14      C    -3.22760652    -0.12200010     1.86049171
     15      C    -1.64226708    -1.96937869     2.46782850
     16      H    -1.35835558    -1.47569650     3.40247630
     17      H    -3.43237983    -2.27929051     0.36117497
     18      H    -1.79403752    -2.48562025    -0.22617217
     19      H    -2.73739882    -1.06535283    -0.71220561
     20      H    -4.09237496    -0.77195714     2.02874040
     21      H    -3.52504616     0.63065610     1.12153320
     22      H    -3.02839134     0.39132188     2.80481255
     23      H    -2.49426654    -2.61939588     2.69321530
     24      H    -0.81607995    -2.62103441     2.16415602
     25      H     0.94716962     1.16418943    -0.71353907
     26      B     3.87407210    -0.97833273    -1.60796812
     27      F     3.20717699    -1.82818093    -2.43190707
     28      F     4.50016571    -1.52004912    -0.53529711
     29      F     4.46837636     0.09299458    -2.18193669
 
Total System Charge             0.00000
 
 *** GOStep6 ***

 Energy gradients wrt nuclear displacements
 ==========================================

     Atom      Cartesian (a.u./angstrom)
                 X         Y         Z
 ----------------------------------------
     1 H     0.001113 -0.000098  0.001055
     2 C     0.003919 -0.000367  0.002168
     3 C    -0.000966  0.002677 -0.002667
     4 C    -0.004899  0.001889  0.004722
     5 O     0.014102 -0.013320 -0.008574
     6 H     0.000806  0.000418  0.000065
     7 H     0.002077 -0.000644  0.000861
     8 H     0.000949 -0.000796  0.000588
     9 C    -0.000001 -0.000822 -0.003084
    10 H     0.000165  0.000778 -0.000184
    11 H    -0.000159  0.000495  0.000144
    12 C    -0.001167  0.001633  0.002126
    13 C    -0.001083 -0.001524 -0.000937
    14 C     0.000695 -0.001788 -0.001656
    15 C    -0.001188  0.001543 -0.001137
    16 H    -0.000062  0.000331  0.001069
    17 H    -0.000607 -0.000024  0.000216
    18 H    -0.000828 -0.001396 -0.000047
    19 H    -0.000664 -0.000013 -0.000330
    20 H    -0.000498 -0.000241  0.000198
    21 H    -0.000576 -0.000090 -0.000197
    22 H    -0.000644  0.000169  0.000680
    23 H    -0.000274 -0.000263 -0.000187
    24 H     0.000634 -0.000939 -0.000242
    25 H     0.001808  0.002759 -0.002016
    26 B    -0.020709  0.014276  0.011274
    27 F    -0.002158 -0.004143 -0.003655
    28 F     0.005144 -0.003674  0.003282
    29 F     0.005074  0.003175 -0.003536
 ----------------------------------------
 Mulliken charges used for AMS results%charges...

 dE(predicted):    -0.14517E-02, dE(actual):    -0.99004E-03, Trust radius:    0.800000, all in a.u.
 Residual max backtransformation error   0.3584E-03
 
----------------------------------------------------------------------
Geometry Convergence after Step   6       (Hartree/Angstrom,Angstrom)
----------------------------------------------------------------------
current energy                               -5.70735160 Hartree
energy change                      -0.00099004     0.00029000    F
constrained gradient max            0.02070265     0.00100000    F
constrained gradient rms            0.00414973     0.00066667    F
gradient max                        0.02070265
gradient rms                        0.00414973
cart. step max                      0.20142642     0.01000000    F
cart. step rms                      0.05421979     0.00666667    F
 
 
--------
Geometry
--------
Formula: C8H16BF3O
Atoms
  Index Symbol   x (angstrom)   y (angstrom)   z (angstrom)
      1      H     1.02789406    -1.17526455     1.15769447
      2      C    -0.83918219    -0.00845284     0.97865894
      3      C     0.38340104    -0.72801876     0.38897591
      4      C     1.26062826     0.13070272    -0.47169558
      5      O     2.38602540    -0.18658120    -0.81991334
      6      H    -1.23996570     0.62456753     0.17186798
      7      H     0.10906912    -1.56945898    -0.26344868
      8      H     0.08452573     0.41287345     2.92670547
      9      C    -0.35438640     0.94875414     2.07710774
     10      H     0.42695398     1.61279688     1.68757355
     11      H    -1.15133303     1.59275460     2.45349473
     12      C    -2.55512839    -1.69291581     0.11685484
     13      C    -2.03077932    -0.95858873     1.37095871
     14      C    -3.20730141    -0.12118354     1.92152546
     15      C    -1.63347004    -2.00546377     2.42994701
     16      H    -1.32058479    -1.54283054     3.37162992
     17      H    -3.49172589    -2.20881205     0.35179043
     18      H    -1.86641031    -2.45860746    -0.25554139
     19      H    -2.76599639    -0.99745567    -0.70339797
     20      H    -4.08237168    -0.76173933     2.07095469
     21      H    -3.50099187     0.67262969     1.22520223
     22      H    -2.98406388     0.34053662     2.88717813
     23      H    -2.48758625    -2.65194843     2.65835599
     24      H    -0.82372143    -2.65850098     2.08745708
     25      H     0.85890147     1.10431921    -0.83443177
     26      B     3.93071959    -0.96402975    -1.54146403
     27      F     3.32011727    -1.94856357    -2.24803193
     28      F     4.57998183    -1.31862270    -0.40889114
     29      F     4.43998330     0.07295418    -2.24105087
 
Total System Charge             0.00000
 
 *** GOStep7 ***

 Energy gradients wrt nuclear displacements
 ==========================================

     Atom      Cartesian (a.u./angstrom)
                 X         Y         Z
 ----------------------------------------
     1 H     0.001886 -0.000627  0.000783
     2 C     0.002114 -0.003629  0.004669
     3 C    -0.002812  0.006693 -0.001399
     4 C    -0.008507  0.000098  0.003690
     5 O     0.015819 -0.013204 -0.006612
     6 H     0.001421  0.000928 -0.000484
     7 H     0.002162 -0.001585  0.000898
     8 H     0.001398 -0.000754  0.000874
     9 C    -0.001037 -0.001369 -0.005241
    10 H     0.000772  0.000771 -0.000581
    11 H    -0.000005  0.000524 -0.000210
    12 C    -0.000423  0.002788  0.002407
    13 C     0.001916 -0.000444 -0.001245
    14 C     0.000963 -0.001505 -0.001405
    15 C    -0.001689  0.001776 -0.002227
    16 H    -0.000275  0.000330  0.001258
    17 H    -0.000794  0.000290  0.000169
    18 H    -0.000576 -0.002139 -0.000093
    19 H    -0.000410 -0.000063 -0.000362
    20 H    -0.000439 -0.000260 -0.000051
    21 H    -0.000630  0.000091 -0.000132
    22 H    -0.001061 -0.000107  0.001051
    23 H    -0.000198 -0.000591 -0.000029
    24 H     0.000637 -0.001132 -0.000298
    25 H     0.002492  0.003282 -0.001535
    26 B    -0.019651  0.014240  0.009210
    27 F    -0.002725 -0.004834 -0.003195
    28 F     0.005102 -0.002518  0.003728
    29 F     0.004550  0.002951 -0.003636
 ----------------------------------------
 Mulliken charges used for AMS results%charges...

 dE(predicted):    -0.10023E-02, dE(actual):    -0.76065E-03, Trust radius:    0.800000, all in a.u.
 
----------------------------------------------------------------------
Geometry Convergence after Step   7       (Hartree/Angstrom,Angstrom)
----------------------------------------------------------------------
current energy                               -5.70811225 Hartree
energy change                      -0.00076065     0.00029000    F
constrained gradient max            0.01964581     0.00100000    F
constrained gradient rms            0.00424903     0.00066667    F
gradient max                        0.01964581
gradient rms                        0.00424903
cart. step max                      0.20198168     0.01000000    F
cart. step rms                      0.05038094     0.00666667    F
 
 
--------
Geometry
--------
Formula: C8H16BF3O
Atoms
  Index Symbol   x (angstrom)   y (angstrom)   z (angstrom)
      1      H     1.02398707    -1.18677918     1.11812853
      2      C    -0.84652091    -0.01695654     0.96644752
      3      C     0.36452950    -0.74171218     0.36160791
      4      C     1.22333222     0.10791446    -0.52512106
      5      O     2.36962221    -0.17155970    -0.83426149
      6      H    -1.25200472     0.61953182     0.16422633
      7      H     0.07246785    -1.58664460    -0.28014703
      8      H     0.08948512     0.40652933     2.90983253
      9      C    -0.34397638     0.94021142     2.05578483
     10      H     0.44762693     1.58702426     1.65737774
     11      H    -1.13009338     1.59988414     2.42765727
     12      C    -2.60151383    -1.65691892     0.11405260
     13      C    -2.03583601    -0.95693791     1.37055332
     14      C    -3.18455469    -0.11667148     1.97408048
     15      C    -1.62539335    -2.03249472     2.39484460
     16      H    -1.28033810    -1.59436903     3.33714181
     17      H    -3.54698117    -2.15341748     0.35492493
     18      H    -1.93782985    -2.43313845    -0.28191194
     19      H    -2.80711874    -0.94306518    -0.69142306
     20      H    -4.06953101    -0.74451117     2.11824244
     21      H    -3.47558876     0.70818241     1.31359637
     22      H    -2.93114082     0.30434089     2.95091790
     23      H    -2.48180993    -2.67228687     2.63362025
     24      H    -0.83472117    -2.68892156     2.01691427
     25      H     0.78140696     1.03942695    -0.94762422
     26      B     3.98811611    -0.94546710    -1.47714641
     27      F     3.43532541    -2.03690426    -2.05844853
     28      F     4.64044067    -1.11664102    -0.30770488
     29      F     4.42181485     0.03820205    -2.29009645
 
Total System Charge             0.00000
 
 *** GOStep8 ***

 Energy gradients wrt nuclear displacements
 ==========================================

     Atom      Cartesian (a.u./angstrom)
                 X         Y         Z
 ----------------------------------------
     1 H     0.002334 -0.000855  0.000283
     2 C     0.000673 -0.006040  0.005790
     3 C    -0.003946  0.009019 -0.000941
     4 C    -0.008705 -0.000381  0.004041
     5 O     0.016743 -0.013123 -0.005103
     6 H     0.001397  0.001171 -0.000784
     7 H     0.002158 -0.002184  0.001067
     8 H     0.001533 -0.000593  0.001080
     9 C    -0.002265 -0.001944 -0.005898
    10 H     0.001154  0.000625 -0.000829
    11 H    -0.000102  0.000447 -0.000339
    12 C    -0.000405  0.002888  0.002343
    13 C     0.004474  0.001166 -0.001893
    14 C     0.001064 -0.001196 -0.001018
    15 C    -0.001633  0.001945 -0.002827
    16 H    -0.000330  0.000368  0.001264
    17 H    -0.000879  0.000403 -0.000067
    18 H    -0.000643 -0.002338  0.000002
    19 H    -0.000154 -0.000157 -0.000332
    20 H    -0.000422 -0.000191 -0.000209
    21 H    -0.000543  0.000234 -0.000037
    22 H    -0.000927 -0.000266  0.001231
    23 H    -0.000153 -0.000735  0.000049
    24 H     0.000501 -0.001041 -0.000221
    25 H     0.002283  0.002894 -0.001568
    26 B    -0.018248  0.013653  0.007000
    27 F    -0.002776 -0.004918 -0.002458
    28 F     0.004267 -0.001206  0.003570
    29 F     0.003549  0.002354 -0.003199
 ----------------------------------------
 Mulliken charges used for AMS results%charges...

 dE(predicted):    -0.16196E-02, dE(actual):    -0.81113E-03, Trust radius:    0.800000, all in a.u.
 
----------------------------------------------------------------------
Geometry Convergence after Step   8       (Hartree/Angstrom,Angstrom)
----------------------------------------------------------------------
current energy                               -5.70892338 Hartree
energy change                      -0.00081113     0.00029000    F
constrained gradient max            0.01825068     0.00100000    F
constrained gradient rms            0.00424006     0.00066667    F
gradient max                        0.01825068
gradient rms                        0.00424006
cart. step max                      0.20125498     0.01000000    F
cart. step rms                      0.04706315     0.00666667    F
 
 
--------
Geometry
--------
Formula: C8H16BF3O
Atoms
  Index Symbol   x (angstrom)   y (angstrom)   z (angstrom)
      1      H     1.01099252    -1.20868961     1.07138089
      2      C    -0.85349383    -0.02088772     0.95685632
      3      C     0.34136879    -0.75463570     0.33058786
      4      C     1.18596612     0.08673120    -0.57740071
      5      O     2.34923791    -0.15353172    -0.85111361
      6      H    -1.26462335     0.62331232     0.16343845
      7      H     0.02224320    -1.59343342    -0.30780310
      8      H     0.10107767     0.38990634     2.89587089
      9      C    -0.32775664     0.92823089     2.04257258
     10      H     0.47354295     1.55928158     1.63826882
     11      H    -1.10065163     1.60167389     2.41694878
     12      C    -2.63629232    -1.62499487     0.11188298
     13      C    -2.04071020    -0.95311240     1.37084037
     14      C    -3.16694940    -0.11345780     2.01730149
     15      C    -1.61919749    -2.05240057     2.36533497
     16      H    -1.24631804    -1.63505662     3.30631764
     17      H    -3.58430769    -2.11435171     0.35672907
     18      H    -1.98655866    -2.40144432    -0.30609484
     19      H    -2.84280931    -0.89521801    -0.67876991
     20      H    -4.05895464    -0.73144347     2.15950366
     21      H    -3.45610722     0.73462188     1.38609120
     22      H    -2.88790279     0.27529322     3.00033828
     23      H    -2.47691517    -2.68667392     2.61395768
     24      H    -0.84553319    -2.71039310     1.95738426
     25      H     0.70809070     0.97622795    -1.04897754
     26      B     4.04262489    -0.92958292    -1.41687024
     27      F     3.54405627    -2.10492275    -1.85877850
     28      F     4.68262902    -0.91538605    -0.23239829
     29      F     4.40645365    -0.01981224    -2.33733286
 
Total System Charge             0.00000
 
 *** GOStep9 ***

 Energy gradients wrt nuclear displacements
 ==========================================

     Atom      Cartesian (a.u./angstrom)
                 X         Y         Z
 ----------------------------------------
     1 H     0.002285 -0.001040 -0.000257
     2 C    -0.001130 -0.007536  0.005951
     3 C    -0.004391  0.010255  0.000451
     4 C    -0.007607 -0.000746  0.002594
     5 O     0.017062 -0.012775 -0.002968
     6 H     0.001224  0.001232 -0.001035
     7 H     0.001710 -0.002660  0.000871
     8 H     0.001498 -0.000261  0.001077
     9 C    -0.002892 -0.001811 -0.005598
    10 H     0.001435  0.000442 -0.000868
    11 H     0.000083  0.000241 -0.000483
    12 C    -0.000249  0.002531  0.001853
    13 C     0.006537  0.002847 -0.002201
    14 C     0.000660 -0.000927 -0.000180
    15 C    -0.001351  0.001682 -0.003067
    16 H    -0.000351  0.000288  0.001037
    17 H    -0.000822  0.000455 -0.000324
    18 H    -0.000343 -0.002134  0.000067
    19 H     0.000178 -0.000254 -0.000302
    20 H    -0.000363 -0.000051 -0.000338
    21 H    -0.000406  0.000321  0.000069
    22 H    -0.000754 -0.000478  0.001068
    23 H    -0.000071 -0.000798  0.000139
    24 H     0.000289 -0.000765 -0.000057
    25 H     0.001791  0.002347 -0.001078
    26 B    -0.016559  0.012346  0.004687
    27 F    -0.002420 -0.004133 -0.001520
    28 F     0.002707 -0.000107  0.002757
    29 F     0.002251  0.001489 -0.002346
 ----------------------------------------
 Mulliken charges used for AMS results%charges...

 dE(predicted):    -0.23753E-02, dE(actual):    -0.10710E-02, Trust radius:    0.800000, all in a.u.
 
----------------------------------------------------------------------
Geometry Convergence after Step   9       (Hartree/Angstrom,Angstrom)
----------------------------------------------------------------------
current energy                               -5.70999439 Hartree
energy change                      -0.00107101     0.00029000    F
constrained gradient max            0.01705978     0.00100000    F
constrained gradient rms            0.00404103     0.00066667    F
gradient max                        0.01705978
gradient rms                        0.00404103
cart. step max                      0.20125127     0.01000000    F
cart. step rms                      0.04456275     0.00666667    F
 
 
--------
Geometry
--------
Formula: C8H16BF3O
Atoms
  Index Symbol   x (angstrom)   y (angstrom)   z (angstrom)
      1      H     0.99240794    -1.23881393     1.01928599
      2      C    -0.86014013    -0.02613465     0.94551286
      3      C     0.31806046    -0.76879280     0.29488729
      4      C     1.15236027     0.07034407    -0.62582442
      5      O     2.32919979    -0.12747352    -0.86930619
      6      H    -1.27744027     0.62933593     0.16464637
      7      H    -0.03127259    -1.59307992    -0.34768909
      8      H     0.11297819     0.35800734     2.88256169
      9      C    -0.31187490     0.90748139     2.03498718
     10      H     0.49693500     1.52782949     1.62983090
     11      H    -1.07282427     1.58925525     2.41820876
     12      C    -2.66959987    -1.60035130     0.11203235
     13      C    -2.04665734    -0.95024492     1.37036799
     14      C    -3.14893632    -0.10550599     2.05160079
     15      C    -1.61628506    -2.06698317     2.34246977
     16      H    -1.21586570    -1.66480405     3.27835790
     17      H    -3.61624839    -2.08848050     0.36363952
     18      H    -2.02936133    -2.37243844    -0.32733746
     19      H    -2.88254925    -0.85744552    -0.66439150
     20      H    -4.04742398    -0.71188261     2.20114470
     21      H    -3.43603137     0.75785599     1.44059670
     22      H    -2.84217768     0.26229690     3.03415344
     23      H    -2.47573169    -2.69324420     2.60467593
     24      H    -0.86055221    -2.72890081     1.90957376
     25      H     0.63996027     0.91846968    -1.13612705
     26      B     4.10312666    -0.91311496    -1.36182447
     27      F     3.65097886    -2.14636483    -1.65752723
     28      F     4.71751153    -0.71947674    -0.18467044
     29      F     4.40065548    -0.09149280    -2.37776945
 
Total System Charge             0.00000
 
 *** GOStep10 ***

 Energy gradients wrt nuclear displacements
 ==========================================

     Atom      Cartesian (a.u./angstrom)
                 X         Y         Z
 ----------------------------------------
     1 H     0.001753 -0.000888 -0.000887
     2 C    -0.003160 -0.008187  0.004662
     3 C    -0.003658  0.010152  0.001954
     4 C    -0.005219 -0.000728  0.001042
     5 O     0.017118 -0.012105 -0.001187
     6 H     0.000835  0.001219 -0.001090
     7 H     0.000958 -0.002828  0.000415
     8 H     0.001243  0.000167  0.000921
     9 C    -0.003351 -0.001638 -0.004174
    10 H     0.001435  0.000148 -0.000815
    11 H     0.000010 -0.000048 -0.000427
    12 C    -0.000278  0.001677  0.000768
    13 C     0.007681  0.004124 -0.001993
    14 C     0.000367 -0.000220  0.000680
    15 C    -0.000707  0.001009 -0.002779
    16 H    -0.000327  0.000185  0.000670
    17 H    -0.000618  0.000471 -0.000578
    18 H    -0.000069 -0.001619  0.000140
    19 H     0.000497 -0.000351 -0.000291
    20 H    -0.000182  0.000126 -0.000434
    21 H    -0.000213  0.000395  0.000187
    22 H    -0.000275 -0.000465  0.000752
    23 H     0.000044 -0.000745  0.000206
    24 H    -0.000002 -0.000348  0.000258
    25 H     0.000959  0.001399 -0.000392
    26 B    -0.014125  0.010429  0.002548
    27 F    -0.001902 -0.002259 -0.000664
    28 F     0.000588  0.000581  0.001209
    29 F     0.000600  0.000347 -0.000702
 ----------------------------------------
 Mulliken charges used for AMS results%charges...

 dE(predicted):    -0.33461E-02, dE(actual):    -0.13913E-02, Trust radius:    0.800000, all in a.u.
 
----------------------------------------------------------------------
Geometry Convergence after Step  10       (Hartree/Angstrom,Angstrom)
----------------------------------------------------------------------
current energy                               -5.71138571 Hartree
energy change                      -0.00139132     0.00029000    F
constrained gradient max            0.01711240     0.00100000    F
constrained gradient rms            0.00367148     0.00066667    F
gradient max                        0.01711240
gradient rms                        0.00367148
cart. step max                      0.20241230     0.01000000    F
cart. step rms                      0.04240000     0.00666667    F
 
 
--------
Geometry
--------
Formula: C8H16BF3O
Atoms
  Index Symbol   x (angstrom)   y (angstrom)   z (angstrom)
      1      H     0.96609854    -1.26837961     0.96171900
      2      C    -0.86817655    -0.02537450     0.93434329
      3      C     0.29130745    -0.77745554     0.25430791
      4      C     1.11780057     0.06459959    -0.67345836
      5      O     2.30474037    -0.08972834    -0.89057159
      6      H    -1.29361879     0.64401973     0.17023417
      7      H    -0.09223118    -1.57959533    -0.39723728
      8      H     0.12850268     0.31824084     2.86849653
      9      C    -0.29420063     0.88565951     2.03272498
     10      H     0.51990384     1.49928321     1.62950347
     11      H    -1.04218376     1.57178923     2.43279611
     12      C    -2.69752828    -1.58041526     0.11316264
     13      C    -2.05303834    -0.94599517     1.36982420
     14      C    -3.13760335    -0.10140685     2.08002116
     15      C    -1.60933190    -2.07533725     2.32293698
     16      H    -1.18389007    -1.68408293     3.25183235
     17      H    -3.63650106    -2.07860412     0.37277527
     18      H    -2.05860339    -2.33929861    -0.34917052
     19      H    -2.92629201    -0.82588519    -0.64729075
     20      H    -4.03762022    -0.70230882     2.24069269
     21      H    -3.42820683     0.77073087     1.48346899
     22      H    -2.80665991     0.25398996     3.05880690
     23      H    -2.46740112    -2.69690978     2.59974777
     24      H    -0.86849058    -2.73776083     1.86721415
     25      H     0.57314803     0.87511961    -1.21160287
     26      B     4.17010884    -0.90940847    -1.30872401
     27      F     3.74741136    -2.17316938    -1.45511493
     28      F     4.74697963    -0.54792358    -0.15869546
     29      F     4.40877878    -0.18854264    -2.40667620
 
Total System Charge             0.00000
 
 *** GOStep11 ***

 Energy gradients wrt nuclear displacements
 ==========================================

     Atom      Cartesian (a.u./angstrom)
                 X         Y         Z
 ----------------------------------------
     1 H     0.000686 -0.000405 -0.001287
     2 C    -0.005038 -0.007403  0.002404
     3 C    -0.001805  0.008080  0.003623
     4 C    -0.001568 -0.000848 -0.001595
     5 O     0.015685 -0.010787  0.000792
     6 H     0.000313  0.000992 -0.000984
     7 H    -0.000160 -0.002653 -0.000336
     8 H     0.000784  0.000617  0.000601
     9 C    -0.002872 -0.000889 -0.001774
    10 H     0.001165 -0.000142 -0.000517
    11 H     0.000149 -0.000366 -0.000307
    12 C    -0.000504  0.000484 -0.000537
    13 C     0.007779  0.005136 -0.001572
    14 C    -0.000504  0.000294  0.001667
    15 C     0.000284  0.000134 -0.002023
    16 H    -0.000258  0.000039  0.000182
    17 H    -0.000381  0.000433 -0.000746
    18 H     0.000359 -0.000817  0.000266
    19 H     0.000805 -0.000387 -0.000278
    20 H    -0.000040  0.000280 -0.000468
    21 H     0.000006  0.000381  0.000268
    22 H     0.000156 -0.000500  0.000187
    23 H     0.000134 -0.000552  0.000205
    24 H    -0.000197  0.000184  0.000535
    25 H    -0.000133  0.000502  0.000563
    26 B    -0.010633  0.007967  0.000782
    27 F    -0.001079  0.000695 -0.000227
    28 F    -0.001995  0.000399 -0.001008
    29 F    -0.001140 -0.000866  0.001581
 ----------------------------------------
 Mulliken charges used for AMS results%charges...

 dE(predicted):    -0.39582E-02, dE(actual):    -0.17759E-02, Trust radius:    0.800000, all in a.u.
 Residual max backtransformation error   0.4333E-04
 
----------------------------------------------------------------------
Geometry Convergence after Step  11       (Hartree/Angstrom,Angstrom)
----------------------------------------------------------------------
current energy                               -5.71316164 Hartree
energy change                      -0.00177593     0.00029000    F
constrained gradient max            0.01568014     0.00100000    F
constrained gradient rms            0.00313339     0.00066667    F
gradient max                        0.01568014
gradient rms                        0.00313339
cart. step max                      0.20302521     0.01000000    F
cart. step rms                      0.04068650     0.00666667    F
 
 
--------
Geometry
--------
Formula: C8H16BF3O
Atoms
  Index Symbol   x (angstrom)   y (angstrom)   z (angstrom)
      1      H     0.94235066    -1.28747216     0.90256704
      2      C    -0.87687936    -0.02332013     0.92067864
      3      C     0.26662149    -0.77912716     0.21068088
      4      C     1.08442191     0.07212081    -0.71943745
      5      O     2.27820877    -0.04187465    -0.91526175
      6      H    -1.31264305     0.65893332     0.17452637
      7      H    -0.14464754    -1.55964687    -0.44985243
      8      H     0.14416131     0.27975927     2.84953365
      9      C    -0.27994419     0.86539648     2.02805831
     10      H     0.53553246     1.47727243     1.62660479
     11      H    -1.01731525     1.55124359     2.44775824
     12      C    -2.72675075    -1.56432314     0.11627204
     13      C    -2.05831029    -0.94438331     1.36847620
     14      C    -3.12413737    -0.10016956     2.10727392
     15      C    -1.59884581    -2.08455703     2.30283137
     16      H    -1.14789226    -1.70294115     3.22319293
     17      H    -3.65600817    -2.07389224     0.38777126
     18      H    -2.09106896    -2.30906004    -0.37159245
     19      H    -2.97581423    -0.79877196    -0.62660760
     20      H    -4.02371043    -0.69728584     2.28296918
     21      H    -3.42121757     0.77795670     1.52291582
     22      H    -2.76864303     0.24682441     3.08009372
     23      H    -2.45410352    -2.70231904     2.59582388
     24      H    -0.87330312    -2.74690883     1.82400960
     25      H     0.51166395     0.84864639    -1.27957220
     26      B     4.23518680    -0.91445959    -1.25053722
     27      F     3.82358532    -2.18478837    -1.25208972
     28      F     4.77399489    -0.40422467    -0.14491982
     29      F     4.42870942    -0.30277730    -2.41610063
 
Total System Charge             0.00000
 
 *** GOStep12 ***

 Energy gradients wrt nuclear displacements
 ==========================================

     Atom      Cartesian (a.u./angstrom)
                 X         Y         Z
 ----------------------------------------
     1 H    -0.000324  0.000196 -0.001429
     2 C    -0.006395 -0.005841  0.000053
     3 C     0.000354  0.005108  0.004301
     4 C     0.001952 -0.000130 -0.003273
     5 O     0.013174 -0.009710  0.002269
     6 H    -0.000069  0.000765 -0.000765
     7 H    -0.000970 -0.002121 -0.000877
     8 H     0.000297  0.000877  0.000303
     9 C    -0.002158 -0.000349  0.000561
    10 H     0.000782 -0.000368 -0.000251
    11 H     0.000088 -0.000538 -0.000103
    12 C    -0.000754 -0.000638 -0.001693
    13 C     0.006908  0.005179 -0.000945
    14 C    -0.000863  0.000906  0.002322
    15 C     0.001161 -0.000777 -0.001116
    16 H    -0.000158 -0.000049 -0.000197
    17 H    -0.000129  0.000417 -0.000785
    18 H     0.000532 -0.000152  0.000333
    19 H     0.001002 -0.000335 -0.000320
    20 H     0.000147  0.000347 -0.000488
    21 H     0.000217  0.000393  0.000288
    22 H     0.000544 -0.000386 -0.000231
    23 H     0.000214 -0.000355  0.000177
    24 H    -0.000303  0.000577  0.000746
    25 H    -0.001194 -0.000256  0.000967
    26 B    -0.006772  0.005225 -0.000393
    27 F    -0.000547  0.003855 -0.000351
    28 F    -0.004130 -0.000341 -0.002953
    29 F    -0.002602 -0.001500  0.003852
 ----------------------------------------
 Mulliken charges used for AMS results%charges...

 dE(predicted):    -0.38494E-02, dE(actual):    -0.16947E-02, Trust radius:    0.800000, all in a.u.
 
----------------------------------------------------------------------
Geometry Convergence after Step  12       (Hartree/Angstrom,Angstrom)
----------------------------------------------------------------------
current energy                               -5.71485637 Hartree
energy change                      -0.00169473     0.00029000    F
constrained gradient max            0.01317200     0.00100000    F
constrained gradient rms            0.00275234     0.00066667    F
gradient max                        0.01317200
gradient rms                        0.00275234
cart. step max                      0.20361237     0.01000000    F
cart. step rms                      0.04054049     0.00666667    F
 
 
--------
Geometry
--------
Formula: C8H16BF3O
Atoms
  Index Symbol   x (angstrom)   y (angstrom)   z (angstrom)
      1      H     0.91918187    -1.29977246     0.83827562
      2      C    -0.88592220    -0.01890566     0.90549791
      3      C     0.24035692    -0.77582221     0.16282396
      4      C     1.04812471     0.08756936    -0.76796059
      5      O     2.24680475     0.01209515    -0.94603355
      6      H    -1.33440404     0.67501988     0.17851773
      7      H    -0.19618669    -1.53573036    -0.50471596
      8      H     0.16645294     0.24583879     2.82325281
      9      C    -0.26311305     0.84867337     2.01791812
     10      H     0.55109619     1.45989173     1.61433173
     11      H    -0.98854894     1.53343397     2.45968570
     12      C    -2.75565154    -1.54940728     0.12170245
     13      C    -2.06232321    -0.94330134     1.36744119
     14      C    -3.11117779    -0.10426592     2.13586407
     15      C    -1.58405232    -2.09364897     2.28100469
     16      H    -1.10778925    -1.72165801     3.19216673
     17      H    -3.67268891    -2.07309887     0.40721156
     18      H    -2.12388248    -2.27783579    -0.39414860
     19      H    -3.02952772    -0.77331584    -0.60132174
     20      H    -4.00741780    -0.70163268     2.32691514
     21      H    -3.41895896     0.77863377     1.56443796
     22      H    -2.73307158     0.23533745     3.10247956
     23      H    -2.43456460    -2.70980999     2.59034585
     24      H    -0.87359411    -2.75395999     1.77788088
     25      H     0.45164112     0.83511086    -1.34431043
     26      B     4.29517374    -0.92604763    -1.18188487
     27      F     3.88162425    -2.18443917    -1.04847735
     28      F     4.79696007    -0.28616773    -0.13237151
     29      F     4.45866074    -0.42693407    -2.40046249
 
Total System Charge             0.00000
 
 *** GOStep13 ***

 Energy gradients wrt nuclear displacements
 ==========================================

     Atom      Cartesian (a.u./angstrom)
                 X         Y         Z
 ----------------------------------------
     1 H    -0.001104  0.000710 -0.001348
     2 C    -0.006985 -0.003980 -0.001756
     3 C     0.001904  0.002117  0.004497
     4 C     0.004411  0.000349 -0.004428
     5 O     0.010553 -0.008256  0.003164
     6 H    -0.000351  0.000494 -0.000502
     7 H    -0.001575 -0.001510 -0.001222
     8 H    -0.000124  0.000984  0.000065
     9 C    -0.001118  0.000201  0.002371
    10 H     0.000433 -0.000487 -0.000030
    11 H     0.000141 -0.000586  0.000018
    12 C    -0.000887 -0.001438 -0.002452
    13 C     0.005469  0.004919 -0.000378
    14 C    -0.001261  0.001066  0.002781
    15 C     0.001807 -0.001404 -0.000340
    16 H    -0.000079 -0.000110 -0.000461
    17 H     0.000030  0.000397 -0.000731
    18 H     0.000686  0.000345  0.000359
    19 H     0.001079 -0.000241 -0.000359
    20 H     0.000203  0.000375 -0.000448
    21 H     0.000358  0.000370  0.000258
    22 H     0.000676 -0.000338 -0.000563
    23 H     0.000221 -0.000160  0.000127
    24 H    -0.000302  0.000825  0.000808
    25 H    -0.002014 -0.000611  0.001131
    26 B    -0.002388  0.002591 -0.000856
    27 F    -0.000307  0.006247 -0.000987
    28 F    -0.005718 -0.001408 -0.004416
    29 F    -0.003756 -0.001462  0.005698
 ----------------------------------------
 Mulliken charges used for AMS results%charges...
 Rebuilding optimization coordinates

 dE(predicted):    -0.33532E-02, dE(actual):    -0.15242E-02, Trust radius:    0.800000, all in a.u.
 
----------------------------------------------------------------------
Geometry Convergence after Step  13       (Hartree/Angstrom,Angstrom)
----------------------------------------------------------------------
current energy                               -5.71638054 Hartree
energy change                      -0.00152417     0.00029000    F
constrained gradient max            0.01054874     0.00100000    F
constrained gradient rms            0.00260579     0.00066667    F
gradient max                        0.01054874
gradient rms                        0.00260579
cart. step max                      0.20967877     0.01000000    F
cart. step rms                      0.04730931     0.00666667    F
 
 
--------
Geometry
--------
Formula: C8H16BF3O
Atoms
  Index Symbol   x (angstrom)   y (angstrom)   z (angstrom)
      1      H     0.89319790    -1.31966129     0.75566245
      2      C    -0.89426919    -0.02124103     0.88273621
      3      C     0.20722791    -0.78037366     0.10038115
      4      C     1.00117944     0.09737696    -0.83148399
      5      O     2.20436412     0.06672737    -0.98669674
      6      H    -1.35759498     0.68497780     0.17792213
      7      H    -0.25612057    -1.51989472    -0.57046008
      8      H     0.20401147     0.20382279     2.77890447
      9      C    -0.23480846     0.82426344     1.99251169
     10      H     0.57691614     1.43171517     1.57945464
     11      H    -0.94202177     1.51102557     2.46038917
     12      C    -2.80000759    -1.53248506     0.13639225
     13      C    -2.06734825    -0.94421857     1.36761177
     14      C    -3.08808650    -0.10374199     2.17079579
     15      C    -1.57222629    -2.10665751     2.25718111
     16      H    -1.06119312    -1.74706506     3.15424422
     17      H    -3.70304910    -2.06704594     0.44555309
     18      H    -2.18291129    -2.24679795    -0.41519097
     19      H    -3.10413674    -0.74467208    -0.56159575
     20      H    -3.98183604    -0.69719087     2.38481052
     21      H    -3.40688725     0.78373642     1.61264309
     22      H    -2.68041313     0.22917766     3.12762527
     23      H    -2.41965283    -2.71461995     2.59016783
     24      H    -0.88687792    -2.77102943     1.72526789
     25      H     0.38313747     0.80906905    -1.43195170
     26      B     4.36307892    -0.91998482    -1.08539719
     27      F     3.95017871    -2.15853591    -0.83879858
     28      F     4.81151624    -0.16669694    -0.09214696
     29      F     4.51783479    -0.52412909    -2.34046622
 
Total System Charge             0.00000
 
 *** GOStep14 ***

 Energy gradients wrt nuclear displacements
 ==========================================

     Atom      Cartesian (a.u./angstrom)
                 X         Y         Z
 ----------------------------------------
     1 H    -0.001436  0.000850 -0.000978
     2 C    -0.006330 -0.001777 -0.002951
     3 C     0.002772 -0.000558  0.003727
     4 C     0.005521  0.001278 -0.004188
     5 O     0.007555 -0.006448  0.003368
     6 H    -0.000448  0.000223 -0.000184
     7 H    -0.001509 -0.000790 -0.001190
     8 H    -0.000432  0.000836 -0.000051
     9 C    -0.000099  0.000453  0.003336
    10 H     0.000163 -0.000458  0.000079
    11 H     0.000082 -0.000439  0.000135
    12 C    -0.001017 -0.001807 -0.002622
    13 C     0.003448  0.003683  0.000246
    14 C    -0.001086  0.001085  0.002569
    15 C     0.002001 -0.001805  0.000247
    16 H    -0.000004 -0.000098 -0.000516
    17 H     0.000127  0.000341 -0.000564
    18 H     0.000607  0.000574  0.000315
    19 H     0.000949 -0.000100 -0.000390
    20 H     0.000241  0.000319 -0.000384
    21 H     0.000402  0.000369  0.000179
    22 H     0.000674 -0.000185 -0.000635
    23 H     0.000166  0.000005  0.000085
    24 H    -0.000243  0.000824  0.000733
    25 H    -0.002292 -0.000731  0.000589
    26 B     0.001263  0.000085  0.000120
    27 F    -0.000391  0.006936 -0.001513
    28 F    -0.006309 -0.002350 -0.005323
    29 F    -0.004376 -0.000315  0.005757
 ----------------------------------------
 Mulliken charges used for AMS results%charges...

 dE(predicted):    -0.18300E-02, dE(actual):    -0.14281E-02, Trust radius:    0.800000, all in a.u.
 
----------------------------------------------------------------------
Geometry Convergence after Step  14       (Hartree/Angstrom,Angstrom)
----------------------------------------------------------------------
current energy                               -5.71780863 Hartree
energy change                      -0.00142809     0.00029000    F
constrained gradient max            0.00755177     0.00100000    F
constrained gradient rms            0.00239076     0.00066667    F
gradient max                        0.00755177
gradient rms                        0.00239076
cart. step max                      0.20991612     0.01000000    F
cart. step rms                      0.04541984     0.00666667    F
 
 
--------
Geometry
--------
Formula: C8H16BF3O
Atoms
  Index Symbol   x (angstrom)   y (angstrom)   z (angstrom)
      1      H     0.87204885    -1.34195066     0.68189735
      2      C    -0.89800263    -0.02680789     0.86202684
      3      C     0.17808658    -0.79000491     0.04622399
      4      C     0.95838318     0.09440512    -0.89197498
      5      O     2.16366577     0.10156183    -1.03051924
      6      H    -1.37177827     0.69013825     0.17549631
      7      H    -0.31069953    -1.51445813    -0.62240531
      8      H     0.24212728     0.16819874     2.73644851
      9      C    -0.20390258     0.80114382     1.96427622
     10      H     0.60707291     1.40096135     1.53921317
     11      H    -0.89221706     1.49342825     2.45200404
     12      C    -2.83888327    -1.51136297     0.14901771
     13      C    -2.06867365    -0.94452976     1.36694997
     14      C    -3.06026244    -0.10333541     2.20483277
     15      C    -1.56235326    -2.12165855     2.23055337
     16      H    -1.02004145    -1.77741743     3.11518808
     17      H    -3.73343850    -2.04917425     0.47682997
     18      H    -2.24038428    -2.21750681    -0.43266440
     19      H    -3.16213726    -0.71146980    -0.52634455
     20      H    -3.95385952    -0.69085088     2.43553125
     21      H    -3.38481354     0.79286206     1.66417666
     22      H    -2.62531913     0.21580605     3.15433873
     23      H    -2.40750943    -2.72180856     2.58295231
     24      H    -0.90190156    -2.78933260     1.67183956
     25      H     0.32368755     0.77337807    -1.51388652
     26      B     4.40360684    -0.89861524    -0.98567793
     27      F     3.99397812    -2.10882399    -0.62888245
     28      F     4.80710416    -0.04214361    -0.06262583
     29      F     4.55961821    -0.61478176    -2.26874902
 
Total System Charge             0.00000
 
 *** GOStep15 ***

 Energy gradients wrt nuclear displacements
 ==========================================

     Atom      Cartesian (a.u./angstrom)
                 X         Y         Z
 ----------------------------------------
     1 H    -0.001531  0.000772 -0.001020
     2 C    -0.006071 -0.001216 -0.003272
     3 C     0.002949 -0.001185  0.003944
     4 C     0.006178  0.001326 -0.003796
     5 O     0.005745 -0.005084  0.003313
     6 H    -0.000468  0.000101 -0.000047
     7 H    -0.001634 -0.000480 -0.001309
     8 H    -0.000500  0.000764 -0.000054
     9 C     0.000315  0.000478  0.003491
    10 H     0.000150 -0.000417  0.000057
    11 H     0.000101 -0.000356  0.000139
    12 C    -0.001039 -0.001820 -0.002549
    13 C     0.002724  0.003290  0.000470
    14 C    -0.000986  0.000936  0.002460
    15 C     0.001975 -0.001890  0.000340
    16 H     0.000020 -0.000089 -0.000508
    17 H     0.000145  0.000304 -0.000499
    18 H     0.000630  0.000604  0.000265
    19 H     0.000861 -0.000039 -0.000409
    20 H     0.000217  0.000295 -0.000344
    21 H     0.000403  0.000369  0.000137
    22 H     0.000617 -0.000158 -0.000638
    23 H     0.000123  0.000056  0.000087
    24 H    -0.000190  0.000788  0.000673
    25 H    -0.002472 -0.000803  0.000208
    26 B     0.004689 -0.001126  0.001293
    27 F    -0.000384  0.008649 -0.002584
    28 F    -0.007339 -0.004314 -0.006996
    29 F    -0.005229  0.000244  0.007147
 ----------------------------------------
 Mulliken charges used for AMS results%charges...

 dE(predicted):    -0.11839E-02, dE(actual):    -0.76543E-03, Trust radius:    0.800000, all in a.u.
 Residual max backtransformation error   0.2423E-03
 
----------------------------------------------------------------------
Geometry Convergence after Step  15       (Hartree/Angstrom,Angstrom)
----------------------------------------------------------------------
current energy                               -5.71857406 Hartree
energy change                      -0.00076543     0.00029000    F
constrained gradient max            0.00864876     0.00100000    F
constrained gradient rms            0.00259171     0.00066667    F
gradient max                        0.00864876
gradient rms                        0.00259171
cart. step max                      0.20996608     0.01000000    F
cart. step rms                      0.04943614     0.00666667    F
 
 
--------
Geometry
--------
Formula: C8H16BF3O
Atoms
  Index Symbol   x (angstrom)   y (angstrom)   z (angstrom)
      1      H     0.84228926    -1.35491140     0.58530056
      2      C    -0.90541821    -0.02528309     0.83526867
      3      C     0.13830394    -0.78762599    -0.02594365
      4      C     0.90493818     0.11329887    -0.96071348
      5      O     2.11153059     0.15679429    -1.08199581
      6      H    -1.39843714     0.70269085     0.17481536
      7      H    -0.37744066    -1.49212935    -0.69347593
      8      H     0.29357660     0.13227698     2.67472387
      9      C    -0.17080453     0.78114229     1.92709640
     10      H     0.63035327     1.38263652     1.48690756
     11      H    -0.83894828     1.47021161     2.44670292
     12      C    -2.87626730    -1.49822711     0.16801378
     13      C    -2.06770941    -0.94633296     1.36638726
     14      C    -3.03129864    -0.10888063     2.23887492
     15      C    -1.53960153    -2.13261954     2.20338881
     16      H    -0.96336759    -1.79916781     3.07046710
     17      H    -3.74877352    -2.05661981     0.52051933
     18      H    -2.29277271    -2.18226219    -0.45368355
     19      H    -3.23920506    -0.68858432    -0.47490202
     20      H    -3.91599451    -0.69866440     2.49738814
     21      H    -3.37517703     0.78768592     1.71099415
     22      H    -2.56728341     0.20921552     3.17492632
     23      H    -2.37643583    -2.72898205     2.58117940
     24      H    -0.90478405    -2.80103677     1.61604102
     25      H     0.25873124     0.77293657    -1.59232826
     26      B     4.44075194    -0.89862475    -0.86393860
     27      F     4.01179969    -2.07258644    -0.41891638
     28      F     4.80900630     0.03607475    -0.00455114
     29      F     4.62164052    -0.71657521    -2.16248016
 
Total System Charge             0.00000
 
 *** GOStep16 ***

 Energy gradients wrt nuclear displacements
 ==========================================

     Atom      Cartesian (a.u./angstrom)
                 X         Y         Z
 ----------------------------------------
     1 H    -0.001247  0.000802 -0.000366
     2 C    -0.003936  0.001347 -0.003280
     3 C     0.002153 -0.003145  0.002134
     4 C     0.005100  0.001094 -0.003433
     5 O     0.003787 -0.003236  0.002988
     6 H    -0.000627 -0.000164  0.000194
     7 H    -0.001385  0.000039 -0.000934
     8 H    -0.000665  0.000565 -0.000095
     9 C     0.001148  0.000588  0.003596
    10 H    -0.000034 -0.000340  0.000177
    11 H     0.000112 -0.000197  0.000154
    12 C    -0.000447 -0.001726 -0.002289
    13 C     0.000209  0.001454  0.000967
    14 C    -0.000580  0.000905  0.001899
    15 C     0.001833 -0.001599  0.000564
    16 H     0.000055 -0.000079 -0.000498
    17 H     0.000189  0.000156 -0.000293
    18 H     0.000614  0.000715  0.000077
    19 H     0.000572  0.000064 -0.000303
    20 H     0.000192  0.000176 -0.000225
    21 H     0.000304  0.000280  0.000068
    22 H     0.000424  0.000016 -0.000567
    23 H     0.000067  0.000147  0.000052
    24 H    -0.000073  0.000610  0.000416
    25 H    -0.002235 -0.000508 -0.000002
    26 B     0.005200 -0.001445  0.002544
    27 F    -0.000364  0.006165 -0.002366
    28 F    -0.005877 -0.003886 -0.005747
    29 F    -0.004488  0.001202  0.004568
 ----------------------------------------
 Mulliken charges used for AMS results%charges...

 dE(predicted):    -0.10509E-02, dE(actual):    -0.95370E-03, Trust radius:    0.800000, all in a.u.
 
----------------------------------------------------------------------
Geometry Convergence after Step  16       (Hartree/Angstrom,Angstrom)
----------------------------------------------------------------------
current energy                               -5.71952776 Hartree
energy change                      -0.00095370     0.00029000    F
constrained gradient max            0.00617710     0.00100000    F
constrained gradient rms            0.00207987     0.00066667    F
gradient max                        0.00617710
gradient rms                        0.00207987
cart. step max                      0.21019132     0.01000000    F
cart. step rms                      0.04862330     0.00666667    F
 
 
--------
Geometry
--------
Formula: C8H16BF3O
Atoms
  Index Symbol   x (angstrom)   y (angstrom)   z (angstrom)
      1      H     0.82224406    -1.37556628     0.50224033
      2      C    -0.90645314    -0.03432936     0.80946462
      3      C     0.10795966    -0.79661838    -0.08649018
      4      C     0.86064261     0.11280138    -1.02379002
      5      O     2.06715780     0.18704590    -1.13191133
      6      H    -1.41065247     0.70345295     0.16857119
      7      H    -0.42988193    -1.48866981    -0.74855596
      8      H     0.34188291     0.09834327     2.61669051
      9      C    -0.13640152     0.75690620     1.88611931
     10      H     0.65824331     1.35438913     1.42905947
     11      H    -0.78447131     1.44844761     2.42765515
     12      C    -2.91771711    -1.47637318     0.18721948
     13      C    -2.06471491    -0.94894634     1.36436940
     14      C    -2.99242670    -0.11066236     2.27338747
     15      C    -1.52788226    -2.15032765     2.17242335
     16      H    -0.91843921    -1.83425277     3.02336093
     17      H    -3.77988880    -2.03617475     0.56268747
     18      H    -2.36227227    -2.15349678    -0.46707392
     19      H    -3.30050243    -0.65448771    -0.42807731
     20      H    -3.87527173    -0.69428522     2.55211869
     21      H    -3.34311345     0.79441528     1.76490000
     22      H    -2.49877562     0.19315092     3.19915959
     23      H    -2.36105768    -2.73766014     2.57200083
     24      H    -0.92334470    -2.82307352     1.55819196
     25      H     0.20639584     0.74884594    -1.67117097
     26      B     4.45747660    -0.86849124    -0.74537151
     27      F     4.02001682    -2.00057350    -0.20872506
     28      F     4.79775450     0.14238278     0.03727034
     29      F     4.66669523    -0.80034200    -2.04965727
 
Total System Charge             0.00000
 
 *** GOStep17 ***

 Energy gradients wrt nuclear displacements
 ==========================================

     Atom      Cartesian (a.u./angstrom)
                 X         Y         Z
 ----------------------------------------
     1 H    -0.000753  0.000408 -0.000346
     2 C    -0.002286  0.001237 -0.002546
     3 C     0.001611 -0.002141  0.001401
     4 C     0.004025  0.001150 -0.002014
     5 O     0.002150 -0.002142  0.002496
     6 H    -0.000495 -0.000163  0.000251
     7 H    -0.000957  0.000216 -0.000632
     8 H    -0.000508  0.000333 -0.000003
     9 C     0.000803  0.000219  0.002545
    10 H     0.000053 -0.000249  0.000015
    11 H     0.000001 -0.000040  0.000096
    12 C    -0.000312 -0.001161 -0.001497
    13 C    -0.000359  0.000721  0.000931
    14 C    -0.000225  0.000495  0.001108
    15 C     0.001245 -0.001034  0.000393
    16 H     0.000072 -0.000043 -0.000307
    17 H     0.000111  0.000084 -0.000174
    18 H     0.000358  0.000493  0.000036
    19 H     0.000305  0.000060 -0.000234
    20 H     0.000080  0.000113 -0.000125
    21 H     0.000193  0.000206  0.000030
    22 H     0.000324  0.000039 -0.000349
    23 H     0.000021  0.000114  0.000059
    24 H    -0.000061  0.000382  0.000247
    25 H    -0.001594 -0.000549 -0.000501
    26 B     0.004258 -0.001321  0.000913
    27 F    -0.000038  0.004622 -0.002569
    28 F    -0.004163 -0.003038 -0.004039
    29 F    -0.003862  0.000990  0.004816
 ----------------------------------------
 Mulliken charges used for AMS results%charges...

 dE(predicted):    -0.70343E-03, dE(actual):    -0.51820E-03, Trust radius:    0.800000, all in a.u.
 
----------------------------------------------------------------------
Geometry Convergence after Step  17       (Hartree/Angstrom,Angstrom)
----------------------------------------------------------------------
current energy                               -5.72004595 Hartree
energy change                      -0.00051820     0.00029000    F
constrained gradient max            0.00480581     0.00100000    F
constrained gradient rms            0.00156851     0.00066667    F
gradient max                        0.00480581
gradient rms                        0.00156851
cart. step max                      0.21078321     0.01000000    F
cart. step rms                      0.04876806     0.00666667    F
 
 
--------
Geometry
--------
Formula: C8H16BF3O
Atoms
  Index Symbol   x (angstrom)   y (angstrom)   z (angstrom)
      1      H     0.80158451    -1.39313003     0.41949019
      2      C    -0.90565168    -0.04129580     0.78431389
      3      C     0.07655278    -0.80422680    -0.14659725
      4      C     0.81377070     0.11237732    -1.08855754
      5      O     2.01953073     0.21306678    -1.18997522
      6      H    -1.42127713     0.70583228     0.16352812
      7      H    -0.48404699    -1.48551797    -0.79978851
      8      H     0.39656689     0.06659557     2.55362270
      9      C    -0.09939799     0.73483704     1.84357954
     10      H     0.68498722     1.33197922     1.36896282
     11      H    -0.72679084     1.42543297     2.41016731
     12      C    -2.95175168    -1.45475954     0.20607033
     13      C    -2.05834651    -0.95126648     1.36217806
     14      C    -2.95218073    -0.11493376     2.30567563
     15      C    -1.51292366    -2.16723555     2.14066712
     16      H    -0.87371495    -1.86843129     2.97600170
     17      H    -3.80221459    -2.01889146     0.60168693
     18      H    -2.42275552    -2.12206187    -0.47965369
     19      H    -3.35395380    -0.62098242    -0.38013050
     20      H    -3.83139590    -0.69484564     2.60355754
     21      H    -3.31072362     0.79755557     1.81635809
     22      H    -2.43136776     0.17575558     3.22084649
     23      H    -2.34117986    -2.74826108     2.55936445
     24      H    -0.93651679    -2.84151979     1.50111800
     25      H     0.15157036     0.73340572    -1.74204946
     26      B     4.45872354    -0.84060408    -0.62237880
     27      F     4.00215173    -1.91974083     0.00205815
     28      F     4.78006039     0.23592752     0.07733342
     29      F     4.70389328    -0.88921082    -1.92138295
 
Total System Charge             0.00000
 
 *** GOStep18 ***

 Energy gradients wrt nuclear displacements
 ==========================================

     Atom      Cartesian (a.u./angstrom)
                 X         Y         Z
 ----------------------------------------
     1 H    -0.000355  0.000152 -0.000174
     2 C    -0.000567  0.001330 -0.001563
[...]
    22     H      -0.033790  -0.016052  -0.050188
    23     H       0.163630   0.117150  -0.082939
    24     H      -0.101931   0.108822   0.120101
    25     H       0.002324  -0.003243   0.002397
    26     B       0.000009   0.000019   0.000065
    27     F       0.000007  -0.000003  -0.000014
    28     F      -0.000001  -0.000009  -0.000010
    29     F      -0.000001  -0.000004  -0.000014
 
 Mode:    79      Frequency (cm-1):     3060.5950     Intensity (km/mol):        0.1931
 Index  Atom      ---- Displacements (x/y/z) ----
     1     H       0.010484  -0.009022   0.006899
     2     C       0.000156  -0.000206   0.000196
     3     C      -0.000893   0.000626  -0.000666
     4     C       0.000030  -0.000060   0.000041
     5     O      -0.000012   0.000000  -0.000004
     6     H      -0.001869   0.003313  -0.001088
     7     H       0.001714   0.001124   0.001007
     8     H       0.001593  -0.001693   0.000389
     9     C       0.001458   0.000019  -0.001511
    10     H      -0.009423  -0.009154   0.006687
    11     H      -0.011143   0.010152   0.010244
    12     C      -0.019228  -0.048210   0.034665
    13     C       0.000014   0.000071  -0.000025
    14     C       0.021291   0.056696  -0.030429
    15     C      -0.001339  -0.000893  -0.000781
    16     H       0.011643   0.005379   0.013679
    17     H       0.401887   0.259861  -0.209056
    18     H      -0.007064  -0.012097   0.011239
    19     H      -0.168061   0.326450  -0.215853
    20     H      -0.440167  -0.310196   0.153023
    21     H       0.175080  -0.385673   0.205875
    22     H       0.013743   0.019640   0.002933
    23     H       0.007322   0.004478  -0.004984
    24     H      -0.002884   0.001161   0.001698
    25     H      -0.000376   0.000505  -0.000353
    26     B       0.000003   0.000005   0.000008
    27     F      -0.000002  -0.000000  -0.000001
    28     F      -0.000001  -0.000002  -0.000001
    29     F      -0.000001  -0.000001  -0.000002
 
 Mode:    80      Frequency (cm-1):     3064.7561     Intensity (km/mol):        4.5563
 Index  Atom      ---- Displacements (x/y/z) ----
     1     H      -0.081153   0.069400  -0.056317
     2     C       0.000345  -0.000516   0.000619
     3     C       0.009130  -0.003192   0.007357
     4     C       0.000469  -0.000152   0.000132
     5     O      -0.000092   0.000053   0.000009
     6     H      -0.005190   0.003719  -0.002904
     7     H      -0.030140  -0.033031  -0.031876
     8     H      -0.077670   0.092005  -0.081386
     9     C      -0.002660  -0.015955   0.012799
    10     H       0.113145   0.098410  -0.078041
    11     H      -0.004338  -0.001355   0.006258
    12     C       0.022317   0.025474  -0.028655
    13     C      -0.000392   0.000823  -0.000520
    14     C       0.013065   0.032177  -0.016654
    15     C      -0.062843  -0.014665   0.016691
    16     H       0.165109   0.085230   0.234900
    17     H      -0.307564  -0.204425   0.160027
    18     H      -0.052946   0.078451   0.068106
    19     H       0.096236  -0.178740   0.116107
    20     H      -0.253572  -0.179254   0.089448
    21     H       0.098476  -0.214108   0.113950
    22     H       0.001428   0.007036  -0.005983
    23     H       0.409106   0.303757  -0.210385
    24     H       0.176677  -0.215245  -0.222839
    25     H      -0.001432   0.001669  -0.001239
    26     B       0.000010   0.000013  -0.000018
    27     F       0.000008  -0.000007   0.000007
    28     F      -0.000002  -0.000003   0.000001
    29     F      -0.000002   0.000000   0.000005
 
 Mode:    81      Frequency (cm-1):     3068.6921     Intensity (km/mol):       20.7882
 Index  Atom      ---- Displacements (x/y/z) ----
     1     H      -0.150452   0.127192  -0.103707
     2     C       0.000613  -0.000048   0.000001
     3     C       0.015297  -0.007606   0.011624
     4     C       0.000970  -0.000260   0.000451
     5     O      -0.000245   0.000019  -0.000073
     6     H      -0.004012   0.009303  -0.005230
     7     H      -0.032632  -0.038633  -0.034878
     8     H       0.115294  -0.136315   0.119557
     9     C       0.005768   0.022527  -0.020835
    10     H      -0.172058  -0.151619   0.119328
    11     H      -0.012570   0.020314   0.009803
    12     C       0.022409  -0.057133   0.000384
    13     C      -0.000240  -0.002058   0.001123
    14     C      -0.008923  -0.028793   0.017939
    15     C      -0.036273   0.000642   0.025900
    16     H       0.005183   0.007028   0.025485
    17     H       0.122762   0.062144  -0.060611
    18     H      -0.222037   0.270609   0.296029
    19     H      -0.170517   0.350639  -0.243805
    20     H       0.223143   0.154832  -0.076643
    21     H      -0.094559   0.211507  -0.110193
    22     H      -0.023150  -0.018094  -0.028272
    23     H       0.253323   0.192904  -0.127193
    24     H       0.174108  -0.200241  -0.210641
    25     H      -0.003757   0.004154  -0.003583
    26     B       0.000005  -0.000002  -0.000012
    27     F       0.000016  -0.000003   0.000006
    28     F      -0.000001  -0.000000   0.000001
    29     F      -0.000001   0.000002   0.000004
 
 Mode:    82      Frequency (cm-1):     3069.9145     Intensity (km/mol):       54.8192
 Index  Atom      ---- Displacements (x/y/z) ----
     1     H      -0.086154   0.073657  -0.060956
     2     C      -0.002456   0.003941  -0.003012
     3     C       0.009831  -0.003184   0.008457
     4     C       0.000591   0.000193   0.000108
     5     O      -0.000219  -0.000051  -0.000071
     6     H       0.030268  -0.043176   0.033853
     7     H      -0.035450  -0.040484  -0.038372
     8     H       0.289211  -0.339126   0.298591
     9     C       0.014717   0.053222  -0.052716
    10     H      -0.414795  -0.365860   0.287874
    11     H      -0.051505   0.068219   0.043495
    12     C       0.004687   0.027691  -0.013995
    13     C       0.000269   0.001308  -0.000540
    14     C       0.009131   0.023151  -0.012305
    15     C       0.014230   0.015087   0.013537
    16     H      -0.124510  -0.059789  -0.159355
    17     H      -0.184381  -0.116763   0.094253
    18     H       0.035542  -0.035880  -0.048327
    19     H       0.092465  -0.180772   0.122231
    20     H      -0.184163  -0.129010   0.065236
    21     H       0.071503  -0.156841   0.082561
    22     H       0.003204   0.006209  -0.000802
    23     H      -0.099584  -0.072691   0.057756
    24     H       0.055011  -0.052140  -0.056875
    25     H      -0.000485  -0.000358  -0.000122
    26     B      -0.000031   0.000071  -0.000017
    27     F       0.000010  -0.000016   0.000015
    28     F       0.000006  -0.000016  -0.000001
    29     F       0.000006  -0.000008  -0.000002
 
 Mode:    83      Frequency (cm-1):     3072.6896     Intensity (km/mol):       34.4404
 Index  Atom      ---- Displacements (x/y/z) ----
     1     H       0.074715  -0.063170   0.051134
     2     C      -0.000506   0.001601  -0.001104
     3     C      -0.006631   0.004822  -0.004348
     4     C      -0.000169   0.000386  -0.000379
     5     O      -0.000082  -0.000059   0.000054
     6     H       0.010471  -0.013594   0.009777
     7     H       0.001470   0.001762   0.000216
     8     H       0.057365  -0.065082   0.056154
     9     C       0.011082   0.008328  -0.017553
    10     H      -0.119107  -0.109069   0.083483
    11     H      -0.069434   0.073455   0.070386
    12     C      -0.053246   0.025453   0.038337
    13     C      -0.001726  -0.000443   0.001052
    14     C       0.010772  -0.012662   0.024561
    15     C      -0.041104  -0.016110  -0.000390
    16     H       0.168272   0.083693   0.225458
    17     H       0.290627   0.211599  -0.151022
    18     H       0.303003  -0.389611  -0.403028
    19     H       0.048967  -0.123086   0.094359
    20     H       0.069726   0.043309  -0.019069
    21     H      -0.071805   0.173247  -0.088394
    22     H      -0.121149  -0.064983  -0.187203
    23     H       0.262957   0.195712  -0.139232
    24     H       0.063664  -0.085354  -0.084986
    25     H       0.002455  -0.003356   0.002758
    26     B       0.000069   0.000044  -0.000025
    27     F      -0.000028  -0.000009   0.000010
    28     F      -0.000010  -0.000015  -0.000003
    29     F      -0.000009  -0.000001   0.000007
 
 Mode:    84      Frequency (cm-1):     3077.7374     Intensity (km/mol):       25.9262
 Index  Atom      ---- Displacements (x/y/z) ----
     1     H      -0.438738   0.371943  -0.301685
     2     C       0.001977  -0.002327   0.002668
     3     C       0.048523  -0.017756   0.038797
     4     C       0.002790  -0.000646   0.000746
     5     O      -0.000747   0.000183   0.000016
     6     H      -0.023450   0.030307  -0.020079
     7     H      -0.152303  -0.173745  -0.165648
     8     H      -0.055573   0.061045  -0.053314
     9     C      -0.013883  -0.006051   0.019714
    10     H       0.123656   0.114056  -0.087057
    11     H       0.095767  -0.100271  -0.098711
    12     C      -0.025003   0.013496   0.018315
    13     C      -0.000919   0.000514   0.000699
    14     C      -0.021164  -0.006166  -0.017638
    15     C       0.007606   0.021248   0.032079
    16     H      -0.202634  -0.096477  -0.252619
    17     H       0.126887   0.094508  -0.066460
    18     H       0.152943  -0.194852  -0.203472
    19     H       0.024443  -0.060993   0.047397
    20     H       0.097804   0.073013  -0.043088
    21     H       0.023460  -0.070933   0.032456
    22     H       0.136098   0.069354   0.216550
    23     H      -0.027585  -0.013962   0.022878
    24     H       0.140024  -0.145223  -0.153571
    25     H      -0.009188   0.012037  -0.009683
    26     B      -0.000004  -0.000069   0.000089
    27     F       0.000068   0.000013  -0.000021
    28     F      -0.000003   0.000010  -0.000007
    29     F      -0.000003   0.000004  -0.000014
 
 Mode:    85      Frequency (cm-1):     3080.8133     Intensity (km/mol):       23.2683
 Index  Atom      ---- Displacements (x/y/z) ----
     1     H       0.390010  -0.331035   0.268579
     2     C      -0.002305   0.002667  -0.002533
     3     C      -0.041456   0.017259  -0.032582
     4     C      -0.002267   0.000737  -0.000982
     5     O       0.000537  -0.000144   0.000079
     6     H       0.025535  -0.033949   0.022859
     7     H       0.113388   0.131034   0.123077
     8     H       0.023825  -0.029564   0.030645
     9     C      -0.009540   0.005561   0.005121
    10     H       0.026589   0.029383  -0.020060
    11     H       0.065063  -0.065687  -0.067703
    12     C      -0.006379   0.002658   0.004255
    13     C      -0.001040   0.000560   0.000618
    14     C      -0.031012  -0.006273  -0.028653
    15     C      -0.009316   0.026963   0.048722
    16     H      -0.216928  -0.100598  -0.260303
    17     H       0.038061   0.027964  -0.019073
    18     H       0.031881  -0.042984  -0.045364
    19     H       0.008150  -0.017694   0.013503
    20     H       0.121416   0.092196  -0.054483
    21     H       0.045035  -0.126587   0.059609
    22     H       0.208821   0.107144   0.332137
    23     H       0.070440   0.059432  -0.024122
    24     H       0.262063  -0.281776  -0.298572
    25     H       0.009170  -0.012087   0.010048
    26     B       0.000088   0.000071  -0.000085
    27     F      -0.000077  -0.000013   0.000020
    28     F      -0.000011  -0.000018   0.000003
    29     F      -0.000009  -0.000001   0.000017
 
 Mode:    86      Frequency (cm-1):     3083.9050     Intensity (km/mol):       42.5428
 Index  Atom      ---- Displacements (x/y/z) ----
     1     H       0.036094  -0.030638   0.026289
     2     C       0.001341  -0.001890   0.001431
     3     C      -0.003721   0.001884  -0.002736
     4     C      -0.000093  -0.000074  -0.000022
     5     O       0.000016   0.000003   0.000004
     6     H      -0.014781   0.020065  -0.015812
     7     H       0.007458   0.008897   0.007081
     8     H      -0.125664   0.154346  -0.139669
     9     C       0.013226  -0.022881   0.006562
    10     H       0.054270   0.039572  -0.036191
    11     H      -0.085163   0.081462   0.092252
    12     C       0.002372   0.000549  -0.002152
    13     C       0.001434   0.000701   0.001381
    14     C       0.048463   0.010521   0.044574
    15     C       0.015203   0.031754   0.043683
    16     H      -0.298000  -0.139239  -0.370809
    17     H      -0.028147  -0.019289   0.013251
    18     H      -0.007420   0.009565   0.008542
    19     H       0.000848  -0.000074  -0.001562
    20     H      -0.186420  -0.142101   0.084217
    21     H      -0.067036   0.186867  -0.088336
    22     H      -0.330239  -0.172578  -0.528626
    23     H      -0.074423  -0.048638   0.051661
    24     H       0.186844  -0.193145  -0.206650
    25     H       0.000139   0.000040   0.000282
    26     B      -0.000019   0.000006   0.000075
    27     F       0.000005   0.000004  -0.000018
    28     F       0.000002  -0.000003  -0.000008
    29     F       0.000003  -0.000005  -0.000018
 
 Mode:    87      Frequency (cm-1):     3097.8377     Intensity (km/mol):       20.8788
 Index  Atom      ---- Displacements (x/y/z) ----
     1     H      -0.032435   0.028068  -0.020660
     2     C       0.002988  -0.002874   0.001614
     3     C       0.002957  -0.001425   0.002603
     4     C       0.000229  -0.000266   0.000343
     5     O      -0.000027   0.000016  -0.000068
     6     H      -0.024188   0.029164  -0.022070
     7     H      -0.006820  -0.007862  -0.008158
     8     H      -0.184411   0.238363  -0.227367
     9     C       0.064255  -0.049212  -0.030390
    10     H      -0.112919  -0.130122   0.087356
    11     H      -0.478651   0.476107   0.503289
    12     C       0.000502  -0.000660   0.000006
    13     C      -0.000436  -0.000167  -0.000315
    14     C      -0.019514  -0.005670  -0.019159
    15     C       0.002560   0.001661   0.002134
    16     H      -0.022588  -0.012032  -0.029406
    17     H      -0.000042   0.000164   0.000261
    18     H      -0.002607   0.003669   0.003732
    19     H      -0.002212   0.004561  -0.002889
    20     H       0.072864   0.056351  -0.031788
    21     H       0.019268  -0.059662   0.026616
    22     H       0.148003   0.076714   0.233789
    23     H      -0.011137  -0.007599   0.005803
    24     H       0.002635  -0.000972  -0.001379
    25     H      -0.001895   0.002781  -0.002122
    26     B      -0.000086  -0.000017   0.000082
    27     F       0.000030   0.000005  -0.000021
    28     F       0.000013   0.000007  -0.000005
    29     F       0.000011  -0.000005  -0.000021

PES point character: Geometry corresponds to a local minimum on the PES.




 ============================
 Statistical Thermal Analysis  ***  ideal gas assumed  ***
 ============================
  
 Pressure:                  1.000000 atm.
 Temperature:             298.150000 K



 Moments of Inertia [amu*bohr^2] and principal axis
 ==================================================

        1289.9374       6880.6256       6996.8281
 ------------------------------------------------
           0.9535          0.2800          0.1113
           0.0113         -0.4025          0.9153
          -0.3011          0.8715          0.3870


 The rotational contribution to the molecular entropy includes
 a term, dependent on the symmetry number sigma. The results 
 reported below were computed using sigma = 1, determined from
 the point group symmetry of the input geometry (NOSYM). 
 If this is not the correct symmetry, try symmetrizing the molecule before
 running the calculation (note: linear molecules should be aligned along one
 of the Cartesian axes).
 Contributions from frequencies below 20 1/cm are not included in vibrational sums.
 Their contributions, if any, are reported separately.


     Temp                                                        Transl      Rotat     Vibrat     Total
     ----                                                        ------      -----     ------     -----

     298.15   Entropy (cal/mol-K):                               41.726     32.496     55.840    130.062
              Nuclear Internal Energy (kcal/mol):                 0.889      0.889    154.542    156.320
              Constant Volume Heat Capacity (cal/mol-K):          2.981      2.981     49.639     55.601
          (c) Constant Volume Heat Capacity (cal/mol-K):          2.981      2.981     45.788     51.750

 Contributions from frequencies below 20 1/cm
 Frequency (1/cm):                                    5.678    14.823
 Entropy (cal/mol-K):                                 9.136     7.229
 Nuclear Internal Energy (kcal/mol):                  0.593     0.593
 Constant Volume Heat Capacity (cal/mol-K):           1.987     1.986

       Summary of energy terms
                                                   hartree              eV         kcal/mol           kJ/mol
                                      --------------------     -----------       ----------      -----------
      Energy from Engine:               -5.720884461968947       -155.6732         -3589.91        -15020.18
      Nuclear Internal Energy:           0.249111454809484          6.7787           156.32           654.04
  (c) Nuclear Internal Energy:           0.247137976883264          6.7250           155.08           648.86
      Internal Energy U:                -5.471773007159462       -148.8945         -3433.59        -14366.14
      pV/n = RT:                         0.000944186013486          0.0257             0.59             2.48
      Enthalpy H:                       -5.470828821145976       -148.8688         -3433.00        -14363.66
      -T*S:                             -0.061796518220313         -1.6816           -38.78          -162.25
  (c) -T*S:                             -0.063322548762802         -1.7231           -39.74          -166.25
      Gibbs free energy:                -5.532625339366289       -150.5504         -3471.78        -14525.91
 
 
 
  (c) The properties marked with this symbol have been corrected using 'low vibrational frequency free rotor
      interpolation corrections'. For those terms all positive frequencies are used (also ones below 20 1/cm),
      but the contribution to the partition function of small vibrational frequencies is modified as described
      in the following paper:
      S. Grimme, 'Supramolecular Binding Thermodynamics by Dispersion-Corrected Density Functional Theory'
      (Chem. Eur. J. 2012, 18, 9955-9964)
      Configuration: Dampener Frequency          :   100.000 1/cm
                     Dampener Alpha              :     4.000
                     Averaging Moment of Inertia : 1.000E-44 kg m2

--------------
Atomic charges
--------------
  Index   Atom    Charge
      1      H   -0.1512
      2      C    0.1807
      3      C    0.4513
      4      C    0.6613
      5      O   -0.5189
      6      H   -0.1792
      7      H   -0.1905
      8      H   -0.2170
      9      C    0.7215
     10      H   -0.2377
     11      H   -0.2517
     12      C    0.7580
     13      C   -0.0357
     14      C    0.7664
     15      C    0.7566
     16      H   -0.2455
     17      H   -0.2423
     18      H   -0.2557
     19      H   -0.2524
     20      H   -0.2521
     21      H   -0.2512
     22      H   -0.2433
     23      H   -0.2430
     24      H   -0.2533
     25      H   -0.2670
     26      B    1.5077
     27      F   -0.5080
     28      F   -0.5027
     29      F   -0.5051


Dipole moment vector    (Debye):    -3.45678595   -0.31989243    1.10256175
              magnitude (Debye):     3.64243637


Final PES point is a local minimum. Geometry optimization successful!


AMS application finished. Exiting.
NORMAL TERMINATION
     Total cpu time:  138033.03
  Total system time:    2638.63
 Total elapsed time:  141389.27
