

 Parallel Execution: Process Information
 ==============================================================================
 Rank   Node Name                              NodeID   MyNodeRank  NodeMaster
    0   node117                                   0          0          0
    1   node117                                   0          1         -1
    2   node117                                   0          2         -1
    3   node117                                   0          3         -1
 ==============================================================================


May use up to 122928MB of RAM as shared memory on node 0

 *******************************************************************************
 *                                                                             *
 *  --------------------------------                                           *
 *   Amsterdam Modeling Suite (AMS)              2021.102                      *
 *  --------------------------------                                           *
 *                                               r95042 2021-06-07             *
 *                                                                             *
 *                                                                             *
 *                              =================                              *
 *                              |               |                              *
 *                              |     A M S     |                              *
 *                              |               |                              *
 *                              =================                              *
 *                                                                             *
 *                                                                             *
 *   Online information and documentation:  https://www.scm.com/support/       *
 *   E-mail:  support@scm.com   info@scm.com                                   *
 *                                                                             *
 *   Scientific publications using AMS results must be properly referenced     *
 *   See the User Manuals (or the web site) for recommended citations          *
 *   The terms and conditions of the End User License Agreement apply to       *
 *   the use of AMS, https://www.scm.com/license-terms/                        *
 *                                                                             *
 **********************  x86_64_linux_intel / intelmpi  ************************
 
 Licensed to: VU/FEW (+ SARA) / ALGEMEEN / Amsterdam / THE NETHERLANDS
 SCM User ID: u7668
  
 AMS 2021.102  RunTime: Jan27-2022 12:54:34  ShM Nodes: 1  Procs: 4

 AMS jobname: 13.achiral_catalyst.H_Ph_TiCl4.TS
 AMS jobid  : 1783468441

 Start   directory: /scistor/tc/yhk800/MasterProject/calculations/achiral_catalyst_H_Ph_TiCl4/13.achiral_catalyst.H_Ph_TiCl4.TS/
 Results directory: /scistor/tc/yhk800/MasterProject/calculations/achiral_catalyst_H_Ph_TiCl4/13.achiral_catalyst.H_Ph_TiCl4.TS/
 Scratch directory: /scratch/5296/amstmp_13.achiral_catalyst.H_Ph_TiCl4.TS_kid0.1783468441/


 Communication costs MPI_COMM_WORLD:      2.145 usec per message,   0.0055 usec per 8-byte item
 Communication costs for intra-node:      1.822 usec per message,   0.0168 usec per 8-byte item

 RNG seed: 399928721 994987300 2120995570 -1231069516 -1175557445 2106901289 -2067848070 -1274616536



                      ************************************************************************
                      *  ADF 2021.102  RunTime: Jan27-2022 12:54:36  ShM Nodes: 1  Procs: 4  *
                      ************************************************************************
  
       *****************************
       *  TRANSITION STATE SEARCH  *
       *****************************

Optimization Method                    Quasi Newton
Optimization Coordinates               Delocalized Coordinates
Optimize lattice                       F
 
 ------------------------------------------------------
 Convergence criteria (Hartree,Angstrom)
 ------------------------------------------------------
 Maximum gradient               0.001000000000
 Maximum rms gradient           0.000666666667
 Maximum step allowed           0.010000000000
 Maximum rms step allowed       0.006666666667
 Maximum energy change allowe   0.000270000000
 Maximum stress energy allowe   0.000500000000
 
Initial model Hessian                  Automatic Hessian
 
------------------------------------
Quasi-Newton Optimizer Parameters
------------------------------------
Hessian Update Method                  Bofill
Maximum number of steps                  250
First GDIIS cycle                          0
Maximum GDIIS vectors                      0
Trust radius (bohr)                        0.200000
Trust radius varies                        F
Constraints converged at all steps         T
Use projector                              T
 
 Rigid motions settings for: old optimizer
 Atomic rotations (x,y,z):     T T T
 Atomic translations (x,y,z):  T T T
 Tolerance:                   1.000000000000000E-006
 
           1  TSRC entries:
    i   type      a1    a2    a3    a4    coef
    1 Distance     2    10               -1.000
 
--------
Geometry
--------
Formula: C10H11Cl4OTi
Atoms
  Index Symbol   x (angstrom)   y (angstrom)   z (angstrom)
      1      H     0.19369716    -1.85361092    -0.24516176
      2      C    -0.92057816    -0.12292898     0.28183759
      3      C     0.21368396    -0.77846351    -0.06958517
      4      C     1.52168394    -0.13059856    -0.22805405
      5      O     2.57084417    -0.68022178    -0.54313771
      6      H    -0.93117356     0.95749943     0.37346659
      7      H    -1.16677948    -1.14795174     3.01281369
      8      H    -2.10496465     0.45730942     2.86041604
      9      H    -0.24714630     0.47546451     3.02589233
     10      C    -1.16197426    -0.07675120     2.85297480
     11      C    -4.74611209    -2.17290540     0.36190353
     12      C    -4.64303884    -0.90540134    -0.22468614
     13      C    -3.40885292    -0.24404214    -0.25051686
     14      C    -2.27774025    -0.85018701     0.31024211
     15      C    -2.38081349    -2.11769108     0.89683179
     16      C    -3.61499942    -2.77905027     0.92266250
     17      H    -5.50859650    -0.44156308    -0.65379390
     18      H    -3.32997851     0.72588585    -0.69939096
     19      H    -1.51525584    -2.58152934     1.32593954
     20      H    -3.69387383    -3.74897827     1.37153661
     21      H    -5.69054416    -2.67899514     0.38166988
     22      H     1.51741535     0.92352060    -0.04443873
     23     Ti     5.69488532     1.49195549    -0.98229955
     24     Cl     3.93691787     0.31396217    -0.73139533
     25     Cl     6.77065905     1.56301726     0.85583317
     26     Cl     5.14875950     3.46833979    -1.56257746
     27     Cl     6.92320487     0.62250274    -2.49105856
 
Total System Charge             0.00000
 
 
----------------
ADF Engine Input
----------------
 
 NumericalQuality VeryGood
 SCF
 Converge 1.0e-6
 Iterations 99
 End
 SYMMETRY NOSYM
 SpinPolarization 1.0
 Unrestricted Yes
 XC
 GGA OLYP
 End
 basis
 core None
 type TZ2P
 End
 

 Title: *** (NO TITLE) ***

Bad geometry: added dihedral     4    5   23   25
Bad geometry: added dihedral    26   23    5    4
Bad geometry: added dihedral    27   23    5    4
 Using automatic Hessian for delocalized coordinates.
 *** GOStep1 ***

 Energy gradients wrt nuclear displacements
 ==========================================

     Atom      Cartesian (a.u./angstrom)
                 X         Y         Z
 ----------------------------------------
     1 H     0.000186 -0.002543  0.001339
     2 C     0.069245  0.027514 -0.012270
     3 C    -0.070512  0.005126  0.025823
     4 C     0.144680  0.025743 -0.023344
     5 O     0.237021  0.248316 -0.039229
     6 H     0.001343 -0.004811  0.004974
     7 H    -0.001157 -0.006153 -0.002919
     8 H    -0.001196  0.001256 -0.001965
     9 H    -0.000949 -0.000852 -0.002367
    10 C    -0.005046 -0.005892 -0.004919
    11 C    -0.020750 -0.013695  0.001406
    12 C    -0.024277  0.012960 -0.010750
    13 C     0.011094  0.020457 -0.012653
    14 C    -0.054239 -0.031215  0.000744
    15 C     0.033391  0.007278  0.018260
    16 C    -0.008725 -0.026603  0.013213
    17 H     0.015746 -0.009114  0.008740
    18 H    -0.001126 -0.018384  0.008388
    19 H    -0.012091  0.009042 -0.006736
    20 H     0.000976  0.018174 -0.009055
    21 H     0.017953  0.009264 -0.000777
    22 H    -0.010642 -0.045117 -0.010852
    23 Ti   -0.015581 -0.009322  0.005468
    24 Cl   -0.264896 -0.182477  0.045140
    25 Cl   -0.027516  0.000092 -0.053981
    26 Cl    0.018560 -0.055055  0.016335
    27 Cl   -0.031492  0.026007  0.041986
 ----------------------------------------
 Mulliken charges used for AMS results%charges...
           Primitive Internal Coordinates (atoms in internal order)
-------------------------------------------------------------------------------
    index    type      i       j       k       l   value(A,deg)     TSRC Vect
-------------------------------------------------------------------------------
       1     bnd       1       3       0       0     1.08957265     0.00000000
       2     bnd       2       6       0       0     1.08435865    -0.00000000
       3     bnd       2      14       0       0     1.54000000     0.00370254
       4     bnd       2       3       0       0     1.35638270     0.00000000
       5     bnd       3       4       0       0     1.46823204     0.00000000
       6     bnd       4      22       0       0     1.07000000     0.00000000
       7     bnd       4       5       0       0     1.22560213     0.00000000
       8     bnd       8      10       0       0     1.08374674    -0.00000000
       9     bnd       7      10       0       0     1.08307071     0.00000000
      10     bnd       9      10       0       0     1.08247534    -0.00000000
      11     bnd      11      21       0       0     1.07166668    -0.00000000
      12     bnd      11      12       0       0     1.40045638    -0.00176246
      13     bnd      12      13       0       0     1.40045639     0.00308292
      14     bnd      13      14       0       0     1.40045639     0.00484538
      15     bnd      14      15       0       0     1.40045639    -0.00774887
      16     bnd      15      19       0       0     1.07166666    -0.00000000
      17     bnd      11      16       0       0     1.40045639    -0.00484538
      18     bnd      15      16       0       0     1.40045639    -0.00308292
      19     bnd      16      20       0       0     1.07166668    -0.00000000
      20     bnd      12      17       0       0     1.07166668     0.00000000
      21     bnd      13      18       0       0     1.07166666     0.00000000
      22     bnd      23      25       0       0     2.13097883    -0.00000000
      23     bnd      23      27       0       0     2.13097882     0.00000000
      24     bnd       5      24       0       0     1.70000000     0.00000000
      25     bnd      23      24       0       0     2.13097882     0.00000000
      26     bnd      23      26       0       0     2.13097883    -0.00000000
      27     bnd       2      10       0       0     2.58285714    -0.46850046
      28     bnd      10      14       0       0     2.88246877    -0.17165346
      29     bnd      10      15       0       0     3.07855488    -0.03699203
      30     ang       6       2      14       0   117.41061246     0.00855328
      31     ang       6       2       3       0   120.77103538     0.01284013
      32     ang       6       2      10       0    84.09702452    -0.03102288
      33     ang      14       2       3       0   120.89733876    -0.02498808
      34     ang      14       2      10       0    84.70507562     0.08602895
      35     ang       3       2      10       0   110.16403203    -0.03328956
      36     ang       1       3       2       0   120.21909900     0.00000000
      37     ang       1       3       4       0   115.74474309     0.00000000
      38     ang       2       3       4       0   124.03410402    -0.00000000
      39     ang       3       4      22       0   114.37019779    -0.00000000
      40     ang       3       4       5       0   126.33327002     0.00000000
      41     ang      22       4       5       0   119.29637471    -0.00000000
      42     ang       4       5      24       0   117.00680806     0.00000000
      43     ang       8      10       7       0   118.84988012    -0.00146834
      44     ang       8      10       9       0   118.87311123    -0.00024377
      45     ang       8      10       2       0    95.56458342     0.00909663
      46     ang       8      10      14       0    78.54912471    -0.00567121
      47     ang       8      10      15       0    89.23041841     0.00006763
      48     ang       7      10       9       0   118.99448321     0.00257304
      49     ang       7      10       2       0    97.44889075     0.00885824
      50     ang       7      10      14       0    82.13060339    -0.00242205
      51     ang       7      10      15       0    55.68992698    -0.00719646
      52     ang       9      10       2       0    95.11483796    -0.02038856
      53     ang       9      10      14       0   127.22419637     0.00509499
      54     ang       9      10      15       0   140.74147852     0.00345464
      55     ang       2      10      15       0    52.59994653     0.02406216
      56     ang      21      11      12       0   120.00000003     0.00262141
      57     ang      21      11      16       0   119.99999998     0.00262141
      58     ang      12      11      16       0   119.99999999    -0.00524282
      59     ang      11      12      13       0   120.00000045     0.00283320
      60     ang      11      12      17       0   119.99999992    -0.00141660
      61     ang      13      12      17       0   119.99999963    -0.00141660
      62     ang      12      13      14       0   119.99999956     0.00956415
      63     ang      12      13      18       0   120.00000060    -0.00478207
      64     ang      14      13      18       0   119.99999984    -0.00478207
      65     ang       2      14      13       0   120.00000008     0.05233565
      66     ang       2      14      15       0   119.99999944    -0.02667342
      67     ang       2      14      10       0    63.15528843    -0.11163583
      68     ang      13      14      15       0   120.00000047    -0.02566222
      69     ang      13      14      10       0   123.34795653     0.02510012
      70     ang      15      14      10       0    84.36745140     0.04820738
      71     ang      14      15      19       0   120.00000056    -0.02292897
      72     ang      14      15      16       0   119.99999929     0.02509558
      73     ang      14      15      10       0    68.71481583    -0.05236308
      74     ang      19      15      16       0   120.00000015    -0.00216660
      75     ang      19      15      10       0    73.30633988    -0.00817627
      76     ang      16      15      10       0   130.56157217     0.05252240
      77     ang      11      16      15       0   120.00000024    -0.00658788
      78     ang      11      16      20       0   119.99999995     0.00329394
      79     ang      15      16      20       0   119.99999981     0.00329394
      80     ang      25      23      27       0   109.47122055    -0.00000000
      81     ang      25      23      24       0   109.47122036     0.00000000
      82     ang      25      23      26       0   109.47122060    -0.00000000
      83     ang      27      23      24       0   109.47122075     0.00000000
      84     ang      27      23      26       0   109.47122075    -0.00000000
      85     ang      24      23      26       0   109.47122080    -0.00000000
      86     lai       5      24      23      25   180.20880601    -0.00000000
      87     lao       5      24      23      25    87.76729102     0.00000000
      88     dih       6       2      14      13    34.24865644    -0.03986035
      89     dih       6       2      14      15   214.24865620    -0.00290824
      90     dih       6       2      14      10   -80.53711813    -0.00962326
      91     dih       3       2      14      13   225.14946408    -0.02037423
      92     dih       3       2      14      15    45.14946384     0.01657788
      93     dih       3       2      14      10   110.36368951     0.00986287
      94     dih      10       2      14      13   114.78577457    -0.03023709
      95     dih      10       2      14      15   -65.21422568     0.00671501
      96     dih       6       2       3       1   185.43025046    -0.01107025
      97     dih       6       2       3       4     5.97435318    -0.01107025
      98     dih      14       2       3       1    -5.83693582    -0.03186770
      99     dih      14       2       3       4   174.70716690    -0.03186770
     100     dih      10       2       3       1    90.20089317     0.04293795
     101     dih      10       2       3       4   -89.25500411     0.04293795
     102     dih       1       3       4      22   180.37552847    -0.00000000
     103     dih       1       3       4       5     0.52197473    -0.00000000
     104     dih       2       3       4      22    -0.14644617    -0.00000000
     105     dih       2       3       4       5   180.00000148    -0.00000000
     106     dih       3       4       5      24   177.13092032    -0.00000000
     107     dih      22       4       5      24    -2.71611828    -0.00000000
     108     dih      21      11      12      13   180.00000000    -0.00260094
     109     dih      21      11      12      17    -0.00000085    -0.00130719
     110     dih      16      11      12      13     0.00000085    -0.00341256
     111     dih      16      11      12      17   179.99999915    -0.00211880
     112     dih      11      12      13      14    -0.00000171    -0.00126139
     113     dih      11      12      13      18   179.99999915     0.00042291
     114     dih      17      12      13      14   180.00000148    -0.00255514
     115     dih      17      12      13      18     0.00000171    -0.00087085
     116     dih      12      13      14       2   180.00000171     0.04828459
     117     dih      12      13      14      15     0.00000171     0.01133248
     118     dih      12      13      14      10   255.86129775    -0.05501212
     119     dih      18      13      14       2     0.00000000     0.04660029
     120     dih      18      13      14      15   180.00000085     0.00964819
     121     dih      18      13      14      10    75.86129736    -0.05669642
     122     dih       2      14      15      19    -0.00000171    -0.04697536
     123     dih       2      14      15      16   179.99999852    -0.05368174
     124     dih       2      14      15      10    54.48589834    -0.09017666
     125     dih      13      14      15      19   179.99999852    -0.01002325
     126     dih      13      14      15      16    -0.00000148    -0.01672964
     127     dih      13      14      15      10   234.48589810    -0.05322455
     128     dih      10      14      15      19   -54.48589835     0.04320130
     129     dih      10      14      15      16   125.51410150     0.03649492
     130     dih      21      11      16      15   179.99999915    -0.00279621
     131     dih      21      11      16      20     0.00000000    -0.00111191
     132     dih      12      11      16      15    -0.00000085    -0.00198460
     133     dih      12      11      16      20   180.00000000    -0.00030030
     134     dih      14      15      16      11     0.00000191     0.01205569
     135     dih      14      15      16      20   180.00000171     0.01037139
     136     dih      19      15      16      11   180.00000226     0.00534931
     137     dih      19      15      16      20     0.00000191     0.00366501
     138     dih      10      15      16      11    86.69956322    -0.01376432
     139     dih      10      15      16      20   266.69956323    -0.01544862
     140     dih       6       2      10       8    60.32627910     0.00089318
     141     dih       6       2      10       7   180.43650753     0.00294483
     142     dih       6       2      10       9   -59.39742086     0.00302683
     143     dih       6       2      10      14   118.31924202    -0.00069755
     144     dih       6       2      10      15   145.07776256    -0.00204241
     145     dih      14       2      10       8   -57.99296292     0.00159073
     146     dih      14       2      10       7    62.11726551     0.00364238
     147     dih      14       2      10       9   182.28333712     0.00372438
     148     dih      14       2      10      15    26.75852053    -0.00134486
     149     dih       3       2      10       8   180.98682002     0.00004114
     150     dih       3       2      10       7   -58.90295155     0.00209280
     151     dih       3       2      10       9    61.26312006     0.00217480
     152     dih       3       2      10      14   238.97978294    -0.00154958
     153     dih       3       2      10      15   265.73830347    -0.00289445
     154     dih       8      10      14       2   120.55659496     0.00123949
     155     dih       8      10      14      13    10.81460513     0.00197560
     156     dih       8      10      14      15   248.36518556    -0.00848411
     157     dih       7      10      14       2   242.22438904     0.00209558
     158     dih       7      10      14      13   132.48239922     0.00283169
     159     dih       7      10      14      15    10.03297964    -0.00762802
     160     dih       9      10      14       2     2.85653387     0.00494493
     161     dih       9      10      14      13   253.11454404     0.00568104
     162     dih       9      10      14      15   130.66512447    -0.00477867
     163     dih       2      10      14      13   250.25801017     0.00073611
     164     dih       2      10      14      15   127.80859060    -0.00972360
     165     dih      15      10      14       2   232.19140940     0.00972360
     166     dih      15      10      14      13   122.44941957     0.01045971
     167     dih       8      10      15      14    65.66230388    -0.00998150
     168     dih       8      10      15      19   198.27580797     0.00647661
     169     dih       8      10      15      16   -46.23027986     0.00102270
     170     dih       7      10      15      14   192.05953883    -0.00823366
     171     dih       7      10      15      19   -35.32695708     0.00822445
     172     dih       7      10      15      16    80.16695508     0.00277054
     173     dih       9      10      15      14   -72.64127535    -0.01427282
     174     dih       9      10      15      19    59.97222874     0.00218529
     175     dih       9      10      15      16   175.46614091    -0.00326862
     176     dih       2      10      15      14   -31.94269627    -0.01864577
     177     dih       2      10      15      19   100.67080782    -0.00218766
     178     dih       2      10      15      16   216.16471998    -0.00764157
     179     dih      14      10      15      19   132.61350409     0.01645811
     180     dih      14      10      15      16   248.10741625     0.01100420
     181     dih       4       5      23      25    92.64854083    -0.00000000
     182     dih      26      23       5       4   -27.85163714    -0.00000000
     183     dih      27      23       5       4   212.10084262    -0.00000000
Hessian eigenvector     1(     0.001) has overlap with TSRC:    0.28311E-12
Hessian eigenvector     2(     0.001) has overlap with TSRC:    0.48781E+00
Hessian eigenvector     3(     0.006) has overlap with TSRC:    0.26266E-01
Hessian eigenvector     4(     0.010) has overlap with TSRC:    0.19355E-01
Hessian eigenvector     5(     0.010) has overlap with TSRC:    0.37439E-02
Hessian eigenvector     6(     0.010) has overlap with TSRC:    0.87682E-02
Hessian eigenvector     7(     0.011) has overlap with TSRC:    0.31530E-02
Hessian eigenvector     8(     0.011) has overlap with TSRC:    0.70097E-02
Hessian eigenvector     9(     0.012) has overlap with TSRC:    0.31939E-04
Hessian eigenvector    10(     0.012) has overlap with TSRC:    0.39380E-03
Hessian eigenvector    11(     0.012) has overlap with TSRC:    0.78499E-03
Hessian eigenvector    12(     0.012) has overlap with TSRC:    0.22917E-01
Hessian eigenvector    13(     0.012) has overlap with TSRC:    0.98976E-02
Hessian eigenvector    14(     0.013) has overlap with TSRC:    0.41734E-04
Hessian eigenvector    15(     0.013) has overlap with TSRC:    0.98954E-04
Hessian eigenvector    16(     0.016) has overlap with TSRC:    0.19029E-02
Hessian eigenvector    17(     0.020) has overlap with TSRC:    0.47236E-01
Hessian eigenvector    18(     0.021) has overlap with TSRC:    0.18743E+00
Hessian eigenvector    19(     0.022) has overlap with TSRC:    0.14055E+00
Hessian eigenvector    20(     0.029) has overlap with TSRC:    0.81207E-02
Hessian eigenvector    21(     0.031) has overlap with TSRC:    0.17463E-01
Hessian eigenvector    22(     0.040) has overlap with TSRC:    0.11416E-01
Hessian eigenvector    23(     0.044) has overlap with TSRC:    0.60891E-01
Hessian eigenvector    24(     0.051) has overlap with TSRC:    0.43258E-01
Hessian eigenvector    25(     0.057) has overlap with TSRC:    0.17357E-13
Hessian eigenvector    26(     0.058) has overlap with TSRC:    0.36698E-13
Hessian eigenvector    27(     0.067) has overlap with TSRC:    0.44498E-01
Hessian eigenvector    28(     0.085) has overlap with TSRC:    0.51898E-01
Hessian eigenvector    29(     0.087) has overlap with TSRC:    0.11876E-01
Hessian eigenvector    30(     0.090) has overlap with TSRC:    0.25171E-01
Hessian eigenvector    31(     0.100) has overlap with TSRC:    0.14398E-02
Hessian eigenvector    32(     0.121) has overlap with TSRC:    0.11800E+00
Hessian eigenvector    33(     0.123) has overlap with TSRC:    0.11570E-01
Hessian eigenvector    34(     0.146) has overlap with TSRC:    0.19022E-13
Hessian eigenvector    35(     0.148) has overlap with TSRC:    0.11213E-13
Hessian eigenvector    36(     0.170) has overlap with TSRC:    0.93153E-01
Hessian eigenvector    37(     0.216) has overlap with TSRC:    0.15729E-07
Hessian eigenvector    38(     0.223) has overlap with TSRC:    0.27719E-10
Hessian eigenvector    39(     0.223) has overlap with TSRC:    0.21756E-10
Hessian eigenvector    40(     0.223) has overlap with TSRC:    0.67243E-10
Hessian eigenvector    41(     0.223) has overlap with TSRC:    0.21569E-10
Hessian eigenvector    42(     0.225) has overlap with TSRC:    0.68107E-12
Hessian eigenvector    43(     0.231) has overlap with TSRC:    0.10880E-07
Hessian eigenvector    44(     0.234) has overlap with TSRC:    0.65247E-14
Hessian eigenvector    45(     0.234) has overlap with TSRC:    0.47859E-14
Hessian eigenvector    46(     0.234) has overlap with TSRC:    0.35378E-14
Hessian eigenvector    47(     0.234) has overlap with TSRC:    0.70940E-10
Hessian eigenvector    48(     0.243) has overlap with TSRC:    0.19634E-13
Hessian eigenvector    49(     0.248) has overlap with TSRC:    0.39536E-12
Hessian eigenvector    50(     0.383) has overlap with TSRC:    0.41860E-02
Hessian eigenvector    51(     0.429) has overlap with TSRC:    0.44727E-02
Hessian eigenvector    52(     0.485) has overlap with TSRC:    0.61093E-02
Hessian eigenvector    53(     0.500) has overlap with TSRC:    0.44681E-15
Hessian eigenvector    54(     0.503) has overlap with TSRC:    0.49474E-16
Hessian eigenvector    55(     0.503) has overlap with TSRC:    0.54570E-14
Hessian eigenvector    56(     0.503) has overlap with TSRC:    0.46385E-14
Hessian eigenvector    57(     0.503) has overlap with TSRC:    0.23721E-14
Hessian eigenvector    58(     0.506) has overlap with TSRC:    0.27319E-13
Hessian eigenvector    59(     0.508) has overlap with TSRC:    0.48218E-02
Hessian eigenvector    60(     0.508) has overlap with TSRC:    0.32867E-14
Hessian eigenvector    61(     0.508) has overlap with TSRC:    0.84395E-14
Hessian eigenvector    62(     0.508) has overlap with TSRC:    0.16886E-14
Hessian eigenvector    63(     0.508) has overlap with TSRC:    0.11611E-14
Hessian eigenvector    64(     0.508) has overlap with TSRC:    0.56430E-14
Hessian eigenvector    65(     0.509) has overlap with TSRC:    0.41683E-14
Hessian eigenvector    66(     0.524) has overlap with TSRC:    0.15830E-13
Hessian eigenvector    67(     0.540) has overlap with TSRC:    0.11818E-13
Hessian eigenvector    68(     0.540) has overlap with TSRC:    0.71949E-15
Hessian eigenvector    69(     0.540) has overlap with TSRC:    0.68090E-14
Hessian eigenvector    70(     0.540) has overlap with TSRC:    0.70233E-14
Hessian eigenvector    71(     0.547) has overlap with TSRC:    0.35893E-11
Hessian eigenvector    72(     0.547) has overlap with TSRC:    0.86229E-15
Hessian eigenvector    73(     0.547) has overlap with TSRC:    0.97126E-10
Hessian eigenvector    74(     0.563) has overlap with TSRC:    0.13853E-13
Hessian eigenvector    75(     0.600) has overlap with TSRC:    0.15844E-13
Hessian eigenvector     2 has the largest overlap with TSRC:  0.48781
           Primitive Internal Coordinates (atoms in internal order)
-------------------------------------------------------------------------------
    index    type      i       j       k       l   value(A,deg)     Max Ovl Vect
-------------------------------------------------------------------------------
       1     bnd       1       3       0       0     1.08957265    -0.00000000
       2     bnd       2       6       0       0     1.08435865    -0.00000000
       3     bnd       2      14       0       0     1.54000000    -0.00504006
       4     bnd       2       3       0       0     1.35638270     0.00000000
       5     bnd       3       4       0       0     1.46823204     0.00000000
       6     bnd       4      22       0       0     1.07000000    -0.00000000
       7     bnd       4       5       0       0     1.22560213     0.00000000
       8     bnd       8      10       0       0     1.08374674     0.00000000
       9     bnd       7      10       0       0     1.08307071    -0.00000000
      10     bnd       9      10       0       0     1.08247534    -0.00000000
      11     bnd      11      21       0       0     1.07166668     0.00000000
      12     bnd      11      12       0       0     1.40045638    -0.00071411
      13     bnd      12      13       0       0     1.40045639    -0.00000697
      14     bnd      13      14       0       0     1.40045639     0.00070715
      15     bnd      14      15       0       0     1.40045639     0.00346221
      16     bnd      15      19       0       0     1.07166666     0.00000000
      17     bnd      11      16       0       0     1.40045639    -0.00070715
      18     bnd      15      16       0       0     1.40045639     0.00000697
      19     bnd      16      20       0       0     1.07166668    -0.00000000
      20     bnd      12      17       0       0     1.07166668     0.00000000
      21     bnd      13      18       0       0     1.07166666     0.00000000
      22     bnd      23      25       0       0     2.13097883    -0.00000000
      23     bnd      23      27       0       0     2.13097882     0.00000000
      24     bnd       5      24       0       0     1.70000000     0.00000000
      25     bnd      23      24       0       0     2.13097882     0.00000000
      26     bnd      23      26       0       0     2.13097883    -0.00000000
      27     bnd       2      10       0       0     2.58285714     0.68987268
      28     bnd      10      14       0       0     2.88246877     0.09175027
      29     bnd      10      15       0       0     3.07855488    -0.00948378
      30     ang       6       2      14       0   117.41061246     0.00105755
      31     ang       6       2       3       0   120.77103538     0.00679440
      32     ang       6       2      10       0    84.09702452     0.02688514
      33     ang      14       2       3       0   120.89733876     0.01515325
      34     ang      14       2      10       0    84.70507562    -0.18875992
      35     ang       3       2      10       0   110.16403203     0.04133659
      36     ang       1       3       2       0   120.21909900    -0.00000020
      37     ang       1       3       4       0   115.74474309    -0.00000026
      38     ang       2       3       4       0   124.03410402    -0.00000021
      39     ang       3       4      22       0   114.37019779     0.00000000
      40     ang       3       4       5       0   126.33327002     0.00000000
      41     ang      22       4       5       0   119.29637471     0.00000000
      42     ang       4       5      24       0   117.00680806     0.00000000
      43     ang       8      10       7       0   118.84988012    -0.00127906
      44     ang       8      10       9       0   118.87311123    -0.00070838
      45     ang       8      10       2       0    95.56458342     0.00053574
      46     ang       8      10      14       0    78.54912471    -0.00128165
      47     ang       8      10      15       0    89.23041841     0.00754319
      48     ang       7      10       9       0   118.99448321     0.00187079
      49     ang       7      10       2       0    97.44889075    -0.01484469
      50     ang       7      10      14       0    82.13060339     0.00925549
      51     ang       7      10      15       0    55.68992698     0.00718280
      52     ang       9      10       2       0    95.11483796     0.01468474
      53     ang       9      10      14       0   127.22419637    -0.00867527
      54     ang       9      10      15       0   140.74147852    -0.01524780
      55     ang       2      10      15       0    52.59994653    -0.03297696
      56     ang      21      11      12       0   120.00000003     0.00066754
      57     ang      21      11      16       0   119.99999998     0.00066754
      58     ang      12      11      16       0   119.99999999    -0.00133507
      59     ang      11      12      13       0   120.00000045     0.00033897
      60     ang      11      12      17       0   119.99999992    -0.00016948
      61     ang      13      12      17       0   119.99999963    -0.00016948
      62     ang      12      13      14       0   119.99999956     0.00373703
      63     ang      12      13      18       0   120.00000060    -0.00186852
      64     ang      14      13      18       0   119.99999984    -0.00186852
      65     ang       2      14      13       0   120.00000008    -0.01864000
      66     ang       2      14      15       0   119.99999944     0.02484829
      67     ang       2      14      10       0    63.15528843     0.21142118
      68     ang      13      14      15       0   120.00000047    -0.00620829
      69     ang      13      14      10       0   123.34795653    -0.02665727
      70     ang      15      14      10       0    84.36745140    -0.03753134
      71     ang      14      15      19       0   120.00000056    -0.00246217
      72     ang      14      15      16       0   119.99999929     0.00307841
      73     ang      14      15      10       0    68.71481583     0.03791878
      74     ang      19      15      16       0   120.00000015    -0.00061624
      75     ang      19      15      10       0    73.30633988     0.01855344
      76     ang      16      15      10       0   130.56157217    -0.05093854
      77     ang      11      16      15       0   120.00000024     0.00038895
      78     ang      11      16      20       0   119.99999995    -0.00019448
      79     ang      15      16      20       0   119.99999981    -0.00019448
      80     ang      25      23      27       0   109.47122055     0.00000000
      81     ang      25      23      24       0   109.47122036    -0.00000000
      82     ang      25      23      26       0   109.47122060    -0.00000000
      83     ang      27      23      24       0   109.47122075     0.00000000
      84     ang      27      23      26       0   109.47122075    -0.00000000
      85     ang      24      23      26       0   109.47122080    -0.00000000
      86     lai       5      24      23      25   180.20880601     0.00000000
      87     lao       5      24      23      25    87.76729102     0.00000000
      88     dih       6       2      14      13    34.24865644     0.13039208
      89     dih       6       2      14      15   214.24865620    -0.03846705
      90     dih       6       2      14      10   -80.53711813     0.07167408
      91     dih       3       2      14      13   225.14946408    -0.00496807
      92     dih       3       2      14      15    45.14946384    -0.17382720
      93     dih       3       2      14      10   110.36368951    -0.06368608
      94     dih      10       2      14      13   114.78577457     0.05871800
      95     dih      10       2      14      15   -65.21422568    -0.11014112
      96     dih       6       2       3       1   185.43025046    -0.04589106
      97     dih       6       2       3       4     5.97435318    -0.04580129
      98     dih      14       2       3       1    -5.83693582     0.09343934
      99     dih      14       2       3       4   174.70716690     0.09352911
     100     dih      10       2       3       1    90.20089317    -0.10816721
     101     dih      10       2       3       4   -89.25500411    -0.10807744
     102     dih       1       3       4      22   180.37552847     0.00004597
     103     dih       1       3       4       5     0.52197473     0.00004593
     104     dih       2       3       4      22    -0.14644617    -0.00004015
     105     dih       2       3       4       5   180.00000148    -0.00004019
     106     dih       3       4       5      24   177.13092032     0.00000002
     107     dih      22       4       5      24    -2.71611828    -0.00000002
     108     dih      21      11      12      13   180.00000000     0.01606104
     109     dih      21      11      12      17    -0.00000085    -0.00766696
     110     dih      16      11      12      13     0.00000085     0.01014813
     111     dih      16      11      12      17   179.99999915    -0.01357987
     112     dih      11      12      13      14    -0.00000171    -0.02646762
     113     dih      11      12      13      18   179.99999915    -0.04318598
     114     dih      17      12      13      14   180.00000148    -0.00273962
     115     dih      17      12      13      18     0.00000171    -0.01945798
     116     dih      12      13      14       2   180.00000171    -0.15484532
     117     dih      12      13      14      15     0.00000171     0.01401381
     118     dih      12      13      14      10   255.86129775     0.09266213
     119     dih      18      13      14       2     0.00000000    -0.13812696
     120     dih      18      13      14      15   180.00000085     0.03073217
     121     dih      18      13      14      10    75.86129736     0.10938049
     122     dih       2      14      15      19    -0.00000171     0.15969932
     123     dih       2      14      15      16   179.99999852     0.18361861
     124     dih       2      14      15      10    54.48589834     0.22638700
     125     dih      13      14      15      19   179.99999852    -0.00915981
     126     dih      13      14      15      16    -0.00000148     0.01475948
     127     dih      13      14      15      10   234.48589810     0.05752787
     128     dih      10      14      15      19   -54.48589835    -0.06668768
     129     dih      10      14      15      16   125.51410150    -0.04276839
     130     dih      21      11      16      15   179.99999915     0.01271225
     131     dih      21      11      16      20     0.00000000    -0.00402446
     132     dih      12      11      16      15    -0.00000085     0.01862517
     133     dih      12      11      16      20   180.00000000     0.00188845
     134     dih      14      15      16      11     0.00000191    -0.03107897
     135     dih      14      15      16      20   180.00000171    -0.01434226
     136     dih      19      15      16      11   180.00000226    -0.00715968
     137     dih      19      15      16      20     0.00000191     0.00957703
     138     dih      10      15      16      11    86.69956322    -0.00169453
     139     dih      10      15      16      20   266.69956323     0.01504218
     140     dih       6       2      10       8    60.32627910     0.05732965
     141     dih       6       2      10       7   180.43650753     0.05333120
     142     dih       6       2      10       9   -59.39742086     0.05556730
     143     dih       6       2      10      14   118.31924202     0.02834511
     144     dih       6       2      10      15   145.07776256     0.06095063
     145     dih      14       2      10       8   -57.99296292     0.02898454
     146     dih      14       2      10       7    62.11726551     0.02498609
     147     dih      14       2      10       9   182.28333712     0.02722219
     148     dih      14       2      10      15    26.75852053     0.03260552
     149     dih       3       2      10       8   180.98682002     0.07845744
     150     dih       3       2      10       7   -58.90295155     0.07445899
     151     dih       3       2      10       9    61.26312006     0.07669508
     152     dih       3       2      10      14   238.97978294     0.04947290
     153     dih       3       2      10      15   265.73830347     0.08207842
     154     dih       8      10      14       2   120.55659496     0.03033504
     155     dih       8      10      14      13    10.81460513    -0.06411059
     156     dih       8      10      14      15   248.36518556    -0.02149315
     157     dih       7      10      14       2   242.22438904     0.02635564
     158     dih       7      10      14      13   132.48239922    -0.06808999
     159     dih       7      10      14      15    10.03297964    -0.02547254
     160     dih       9      10      14       2     2.85653387     0.03367166
     161     dih       9      10      14      13   253.11454404    -0.06077397
     162     dih       9      10      14      15   130.66512447    -0.01815653
     163     dih       2      10      14      13   250.25801017    -0.09444563
     164     dih       2      10      14      15   127.80859060    -0.05182818
     165     dih      15      10      14       2   232.19140940     0.05182818
     166     dih      15      10      14      13   122.44941957    -0.04261745
     167     dih       8      10      15      14    65.66230388    -0.01964536
     168     dih       8      10      15      19   198.27580797    -0.06687464
     169     dih       8      10      15      16   -46.23027986    -0.05661321
     170     dih       7      10      15      14   192.05953883    -0.03153362
     171     dih       7      10      15      19   -35.32695708    -0.07876290
     172     dih       7      10      15      16    80.16695508    -0.06850146
     173     dih       9      10      15      14   -72.64127535    -0.01129854
     174     dih       9      10      15      19    59.97222874    -0.05852782
     175     dih       9      10      15      16   175.46614091    -0.04826638
     176     dih       2      10      15      14   -31.94269627    -0.01830390
     177     dih       2      10      15      19   100.67080782    -0.06553318
     178     dih       2      10      15      16   216.16471998    -0.05527175
     179     dih      14      10      15      19   132.61350409    -0.04722928
     180     dih      14      10      15      16   248.10741625    -0.03696785
     181     dih       4       5      23      25    92.64854083    -0.00000000
     182     dih      26      23       5       4   -27.85163714    -0.00000000
     183     dih      27      23       5       4   212.10084262    -0.00000000
 Residual max backtransformation error   0.4555E-04
 
----------------------------------------------------------------------
Geometry Convergence after Step   1       (Hartree/Angstrom,Angstrom)
----------------------------------------------------------------------
current energy                               -5.35175246 Hartree
energy change                      -5.35175246     0.00027000    F
constrained gradient max            0.26489579     0.00100000    F
constrained gradient rms            0.05905105     0.00066667    F
gradient max                        0.26489579
gradient rms                        0.05905105
cart. step max                      0.10676222     0.01000000    F
cart. step rms                      0.02429981     0.00666667    F
 
 
--------
Geometry
--------
Formula: C10H11Cl4OTi
Atoms
  Index Symbol   x (angstrom)   y (angstrom)   z (angstrom)
      1      H     0.20157447    -1.85454235    -0.22719834
      2      C    -0.91852702    -0.12657532     0.30211555
      3      C     0.21910466    -0.78063961    -0.04445515
      4      C     1.52628721    -0.13070950    -0.18210362
      5      O     2.58229664    -0.68046714    -0.48527726
      6      H    -0.92848541     0.95352013     0.39961513
      7      H    -1.18939112    -1.17078500     3.02849451
      8      H    -2.12355996     0.43670050     2.88041194
      9      H    -0.26730186     0.45057754     3.06200414
     10      C    -1.18140864    -0.09874181     2.87613099
     11      C    -4.74778029    -2.16579754     0.33514022
     12      C    -4.63663126    -0.89346699    -0.23867129
     13      C    -3.40118014    -0.23471459    -0.24736208
     14      C    -2.27582300    -0.84892676     0.31628814
     15      C    -2.38737640    -2.12135099     0.89053854
     16      C    -3.62289213    -2.77972046     0.89948441
     17      H    -5.49786596    -0.42329241    -0.67154206
     18      H    -3.31631983     0.73972188    -0.68718572
     19      H    -1.52632456    -2.59191849     1.32297814
     20      H    -3.70794165    -3.75398234     1.33966620
     21      H    -5.69434957    -2.66990089     0.34270553
     22      H     1.51979892     0.92498862     0.00294702
     23     Ti     5.70587396     1.50245322    -1.02171108
     24     Cl     3.95503158     0.32209932    -0.71644779
     25     Cl     6.79192896     1.64476214     0.80881566
     26     Cl     5.14070594     3.45481821    -1.66933968
     27     Cl     6.92988538     0.58447816    -2.50811808
 
Total System Charge             0.00000
 
 *** GOStep2 ***

 Energy gradients wrt nuclear displacements
 ==========================================

     Atom      Cartesian (a.u./angstrom)
                 X         Y         Z
 ----------------------------------------
     1 H     0.000181 -0.002452  0.001161
     2 C     0.065989  0.028292 -0.008428
     3 C    -0.063977  0.003980  0.022951
     4 C     0.127210  0.028586 -0.018441
     5 O     0.238627  0.236183 -0.049981
     6 H     0.000968 -0.004715  0.004531
     7 H    -0.001147 -0.005742 -0.002860
     8 H    -0.001101  0.001196 -0.001717
     9 H    -0.000901 -0.000804 -0.002136
    10 C    -0.005010 -0.006068 -0.006672
    11 C    -0.019709 -0.012853  0.001043
    12 C    -0.022889  0.012266 -0.010242
    13 C     0.010953  0.019459 -0.011679
    14 C    -0.053374 -0.030325  0.000222
    15 C     0.031926  0.007301  0.018188
    16 C    -0.008373 -0.025314  0.012013
    17 H     0.014818 -0.008768  0.008307
    18 H    -0.001171 -0.017494  0.007764
    19 H    -0.011403  0.008711 -0.006366
    20 H     0.001036  0.017297 -0.008384
    21 H     0.017014  0.008754 -0.000475
    22 H    -0.010095 -0.043155 -0.010779
    23 Ti   -0.013862 -0.008124  0.005536
    24 Cl   -0.256805 -0.178022  0.050987
    25 Cl   -0.026953 -0.001988 -0.051942
    26 Cl    0.018340 -0.052526  0.017571
    27 Cl   -0.030291  0.026325  0.039828
 ----------------------------------------
 Mulliken charges used for AMS results%charges...
Hessian eigenvector     1(    -0.001) has overlap with TSRC:    0.47160E+00
Hessian eigenvector     1 has the largest overlap with TSRC:  0.47160
           Primitive Internal Coordinates (atoms in internal order)
-------------------------------------------------------------------------------
    index    type      i       j       k       l   value(A,deg)     Max Ovl Vect
-------------------------------------------------------------------------------
       1     bnd       1       3       0       0     1.08948130    -0.00057690
       2     bnd       2       6       0       0     1.08453285     0.00139610
       3     bnd       2      14       0       0     1.53761011    -0.02252460
       4     bnd       2       3       0       0     1.35724618    -0.01013937
       5     bnd       3       4       0       0     1.46631595     0.00400448
       6     bnd       4      22       0       0     1.07181358     0.00826222
       7     bnd       4       5       0       0     1.22853719    -0.04279487
       8     bnd       8      10       0       0     1.08368164    -0.00009931
       9     bnd       7      10       0       0     1.08284577    -0.00022229
      10     bnd       9      10       0       0     1.08253951     0.00024514
      11     bnd      11      21       0       0     1.07246018     0.00226123
      12     bnd      11      12       0       0     1.40015670    -0.00125251
      13     bnd      12      13       0       0     1.40013203    -0.00146860
      14     bnd      13      14       0       0     1.40049521     0.00239096
      15     bnd      14      15       0       0     1.40045389     0.00526635
      16     bnd      15      19       0       0     1.07230968     0.00209954
      17     bnd      11      16       0       0     1.40027108    -0.00128748
      18     bnd      15      16       0       0     1.40001054    -0.00099940
      19     bnd      16      20       0       0     1.07246428     0.00231091
      20     bnd      12      17       0       0     1.07245813     0.00229528
      21     bnd      13      18       0       0     1.07246098     0.00234223
      22     bnd      23      25       0       0     2.13321247     0.01324405
      23     bnd      23      27       0       0     2.13314039     0.01249193
      24     bnd       5      24       0       0     1.71551175     0.10105987
      25     bnd      23      24       0       0     2.13351120     0.00766231
      26     bnd      23      26       0       0     2.13320575     0.01337827
      27     bnd       2      10       0       0     2.58755424     0.66726746
      28     bnd      10      14       0       0     2.88328210     0.09988586
      29     bnd      10      15       0       0     3.08024082     0.00597974
      30     ang       6       2      14       0   117.31822832    -0.00276075
      31     ang       6       2       3       0   120.70286811    -0.00185750
      32     ang       6       2      10       0    84.19890976     0.02264581
      33     ang      14       2       3       0   121.05477086     0.02986490
      34     ang      14       2      10       0    84.61795007    -0.17521422
      35     ang       3       2      10       0   110.14223280     0.01977717
      36     ang       1       3       2       0   120.28877392     0.00161417
      37     ang       1       3       4       0   115.81715145     0.00278739
      38     ang       2       3       4       0   123.88972525    -0.00447948
      39     ang       3       4      22       0   114.51753205     0.00450829
      40     ang       3       4       5       0   126.23522120    -0.00105919
      41     ang      22       4       5       0   119.24670770    -0.00357107
      42     ang       4       5      24       0   117.35818066    -0.01137373
      43     ang       8      10       7       0   118.82929069     0.00027716
      44     ang       8      10       9       0   118.86375417    -0.00049000
      45     ang       8      10       2       0    95.59930170    -0.00200864
      46     ang       8      10      14       0    78.58368014    -0.00075040
      47     ang       8      10      15       0    89.23248585     0.00292276
      48     ang       7      10       9       0   118.97571953     0.00126791
      49     ang       7      10       2       0    97.47363244    -0.01417911
      50     ang       7      10      14       0    82.21452543     0.01141508
      51     ang       7      10      15       0    55.78687720     0.01132901
      52     ang       9      10       2       0    95.19084730     0.01328235
      53     ang       9      10      14       0   127.22751304    -0.01396145
      54     ang       9      10      15       0   140.75845702    -0.01486728
      55     ang       2      10      15       0    52.51621829    -0.03394594
      56     ang      21      11      12       0   120.00578323     0.00082300
      57     ang      21      11      16       0   120.00736012     0.00074576
      58     ang      12      11      16       0   119.98685362    -0.00156877
      59     ang      11      12      13       0   120.00859751     0.00014997
      60     ang      11      12      17       0   120.00324280     0.00029998
      61     ang      13      12      17       0   119.98815947    -0.00044996
      62     ang      12      13      14       0   120.01256281     0.00533143
      63     ang      12      13      18       0   119.99039826    -0.00273480
      64     ang      14      13      18       0   119.99696233    -0.00259662
      65     ang       2      14      13       0   119.97141595    -0.02503772
      66     ang       2      14      15       0   120.06180650     0.03360738
      67     ang       2      14      10       0    63.31349250     0.20179977
      68     ang      13      14      15       0   119.96670909    -0.00856966
      69     ang      13      14      10       0   123.24439603    -0.03565410
      70     ang      15      14      10       0    84.40967664    -0.03446784
      71     ang      14      15      19       0   120.00778572    -0.00124206
      72     ang      14      15      16       0   120.01226040     0.00340174
      73     ang      14      15      10       0    68.68645869     0.03570530
      74     ang      19      15      16       0   119.97994281    -0.00215969
      75     ang      19      15      10       0    73.37004516     0.02242312
      76     ang      16      15      10       0   130.55582055    -0.05742325
      77     ang      11      16      15       0   120.01293363     0.00125528
      78     ang      11      16      20       0   119.99974375    -0.00051684
      79     ang      15      16      20       0   119.98728672    -0.00073844
      80     ang      25      23      27       0   109.54316932     0.00234311
      81     ang      25      23      24       0   109.38599722     0.00012963
      82     ang      25      23      26       0   109.53273986     0.00091513
      83     ang      27      23      24       0   109.42095097    -0.00192036
      84     ang      27      23      26       0   109.53193979    -0.00032723
      85     ang      24      23      26       0   109.41229185    -0.00114028
      86     lai       5      24      23      25   180.05738512    -0.03215418
      87     lao       5      24      23      25    87.81214840     0.01136149
      88     dih       6       2      14      13    34.11157773     0.11448660
      89     dih       6       2      14      15   214.01636361    -0.03041093
      90     dih       6       2      14      10   -80.62293038     0.06849084
      91     dih       3       2      14      13   225.03920594    -0.03296148
      92     dih       3       2      14      15    44.94399182    -0.17785901
      93     dih       3       2      14      10   110.30469783    -0.07895724
      94     dih      10       2      14      13   114.73450811     0.04599576
      95     dih      10       2      14      15   -65.36070602    -0.09890177
      96     dih       6       2       3       1   185.46468810    -0.04359083
      97     dih       6       2       3       4     6.25583649    -0.03328680
      98     dih      14       2       3       1    -5.83169775     0.10887611
      99     dih      14       2       3       4   174.95945065     0.11918014
     100     dih      10       2       3       1    90.15180658    -0.08333956
     101     dih      10       2       3       4   -89.05704502    -0.07303553
     102     dih       1       3       4      22   180.04912543    -0.00564659
     103     dih       1       3       4       5     0.32012795     0.05106957
     104     dih       2       3       4      22    -0.70977174    -0.01553522
     105     dih       2       3       4       5   179.56123078     0.04118094
     106     dih       3       4       5      24   174.76461974    -0.22570121
     107     dih      22       4       5      24    -4.95278924    -0.16647263
     108     dih      21      11      12      13   179.93479840     0.01835119
     109     dih      21      11      12      17    -0.05983744    -0.00087963
     110     dih      16      11      12      13    -0.04516283     0.01453190
     111     dih      16      11      12      17   179.96020133    -0.00469892
     112     dih      11      12      13      14     0.08460118    -0.02351201
     113     dih      11      12      13      18   179.98392391    -0.03285802
     114     dih      17      12      13      14   180.07923784    -0.00428119
     115     dih      17      12      13      18    -0.02143944    -0.01362719
     116     dih      12      13      14       2   179.79974105    -0.13651433
     117     dih      12      13      14      15    -0.10513607     0.00838320
     118     dih      12      13      14      10   255.80240133     0.09147956
     119     dih      18      13      14       2    -0.09957501    -0.12716832
     120     dih      18      13      14      15   179.99554786     0.01772921
     121     dih      18      13      14      10    75.90308526     0.10082557
     122     dih       2      14      15      19     0.14323134     0.14280948
     123     dih       2      14      15      16   180.18150020     0.16062325
     124     dih       2      14      15      10    54.68710134     0.21186811
     125     dih      13      14      15      19   180.04802172    -0.00208805
     126     dih      13      14      15      16     0.08629059     0.01572572
     127     dih      13      14      15      10   234.59189172     0.06697058
     128     dih      10      14      15      19   -54.54387000    -0.06905863
     129     dih      10      14      15      16   125.49439886    -0.05124486
     130     dih      21      11      16      15   180.04635701     0.00575773
     131     dih      21      11      16      20    -0.02256924    -0.00273497
     132     dih      12      11      16      15     0.02631792     0.00957702
     133     dih      12      11      16      20   179.95739167     0.00108433
     134     dih      14      15      16      11    -0.04690718    -0.02470583
     135     dih      14      15      16      20   180.02201043    -0.01621314
     136     dih      19      15      16      11   179.99135095    -0.00689206
     137     dih      19      15      16      20     0.06026856     0.00160064
     138     dih      10      15      16      11    86.61948983    -0.00162507
     139     dih      10      15      16      20   266.68840744     0.00686762
     140     dih       6       2      10       8    60.30128432     0.05012170
     141     dih       6       2      10       7   180.40228349     0.04731700
     142     dih       6       2      10       9   -59.43090745     0.04876999
     143     dih       6       2      10      14   118.22327865     0.02287262
     144     dih       6       2      10      15   145.01425613     0.04968836
     145     dih      14       2      10       8   -57.92199434     0.02724908
     146     dih      14       2      10       7    62.17900483     0.02444438
     147     dih      14       2      10       9   182.34581389     0.02589736
     148     dih      14       2      10      15    26.79097748     0.02681574
     149     dih       3       2      10       8   180.92403566     0.05834223
     150     dih       3       2      10       7   -58.97496518     0.05553753
     151     dih       3       2      10       9    61.19184388     0.05699052
     152     dih       3       2      10      14   238.84602999     0.03109315
     153     dih       3       2      10      15   265.63700747     0.05790889
     154     dih       8      10      14       2   120.64924786     0.02826007
     155     dih       8      10      14      13    10.82974234    -0.05602113
     156     dih       8      10      14      15   248.42232911    -0.00997247
     157     dih       7      10      14       2   242.25829587     0.02507953
     158     dih       7      10      14      13   132.43879036    -0.05920167
     159     dih       7      10      14      15    10.03137712    -0.01315301
     160     dih       9      10      14       2     2.93449665     0.03181964
     161     dih       9      10      14      13   253.11499114    -0.05246155
     162     dih       9      10      14      15   130.70757790    -0.00641290
     163     dih       2      10      14      13   250.18049448    -0.08428119
     164     dih       2      10      14      15   127.77308125    -0.03823254
     165     dih      15      10      14       2   232.22691875     0.03823254
     166     dih      15      10      14      13   122.40741323    -0.04604865
     167     dih       8      10      15      14    65.72782981    -0.00916773
     168     dih       8      10      15      19   198.32201572    -0.05620912
     169     dih       8      10      15      16   -46.15964510    -0.04535879
     170     dih       7      10      15      14   192.04596722    -0.01719771
     171     dih       7      10      15      19   -35.35984687    -0.06423910
     172     dih       7      10      15      16    80.15849231    -0.05338877
     173     dih       9      10      15      14   -72.58303665     0.00663914
     174     dih       9      10      15      19    60.01114926    -0.04040225
     175     dih       9      10      15      16   175.52948844    -0.02955192
     176     dih       2      10      15      14   -31.92920526    -0.00829423
     177     dih       2      10      15      19   100.66498065    -0.05533561
     178     dih       2      10      15      16   216.18331983    -0.04448529
     179     dih      14      10      15      19   132.59418590    -0.04704139
     180     dih      14      10      15      16   248.11252509    -0.03619106
     181     dih       4       5      23      25    92.59296706     0.06988973
     182     dih      26      23       5       4   -27.90539120     0.06735105
     183     dih      27      23       5       4   212.08023452     0.07828478
 
----------------------------------------------------------------------
Geometry Convergence after Step   2       (Hartree/Angstrom,Angstrom)
----------------------------------------------------------------------
current energy                               -5.35994723 Hartree
energy change                      -0.00819478     0.00027000    F
constrained gradient max            0.25680367     0.00100000    F
constrained gradient rms            0.05719659     0.00066667    F
gradient max                        0.25680367
gradient rms                        0.05719659
cart. step max                      0.07464052     0.01000000    F
cart. step rms                      0.02417081     0.00666667    F
 
 
--------
Geometry
--------
Formula: C10H11Cl4OTi
Atoms
  Index Symbol   x (angstrom)   y (angstrom)   z (angstrom)
      1      H     0.19693825    -1.85572297    -0.23649109
      2      C    -0.92444610    -0.13636218     0.31938649
      3      C     0.21308209    -0.78406452    -0.04090601
      4      C     1.51783385    -0.12986668    -0.17639958
      5      O     2.57574172    -0.67539173    -0.48740898
      6      H    -0.93693030     0.94324050     0.42187083
      7      H    -1.14214182    -1.18223027     2.98608070
      8      H    -2.06886379     0.43107389     2.85540240
      9      H    -0.20908076     0.43286746     2.99764073
     10      C    -1.13054467    -0.11053771     2.83175323
     11      C    -4.76328974    -2.15632589     0.34751528
     12      C    -4.64702282    -0.88548880    -0.22867769
     13      C    -3.40730902    -0.23497040    -0.24535369
     14      C    -2.28216163    -0.85934475     0.30717836
     15      C    -2.39769570    -2.13108210     0.88116469
     16      C    -3.63877498    -2.77842440     0.90371117
     17      H    -5.50848334    -0.40848446    -0.65377213
     18      H    -3.31957037     0.74128004    -0.68077787
     19      H    -1.53652834    -2.60822621     1.30626468
     20      H    -3.72798217    -3.75138231     1.34616161
     21      H    -5.71391640    -2.65270791     0.36405832
     22      H     1.50991731     0.92388189     0.02003968
     23     Ti     5.69948946     1.51223611    -1.00655208
     24     Cl     3.94769605     0.32978975    -0.71319640
     25     Cl     6.73589910     1.71342726     0.84715714
     26     Cl     5.14021449     3.44165258    -1.72444821
     27     Cl     6.96725855     0.55975134    -2.43347755
 
Total System Charge             0.00000
 
 *** GOStep3 ***

 Energy gradients wrt nuclear displacements
 ==========================================

     Atom      Cartesian (a.u./angstrom)
                 X         Y         Z
 ----------------------------------------
     1 H     0.000197 -0.002472  0.001241
     2 C     0.070706  0.024134 -0.014691
     3 C    -0.074095  0.004311  0.027106
     4 C     0.133342  0.027939 -0.019350
     5 O     0.227173  0.233817 -0.047360
     6 H     0.001187 -0.004634  0.006058
     7 H    -0.001147 -0.005829 -0.003454
     8 H    -0.001103  0.001240 -0.002592
     9 H    -0.000537 -0.000717 -0.003348
    10 C    -0.005962 -0.005760  0.000642
    11 C    -0.019592 -0.012631  0.001159
    12 C    -0.022605  0.012639 -0.010206
    13 C     0.010169  0.019996 -0.011166
    14 C    -0.051941 -0.031221 -0.004030
    15 C     0.032839  0.007110  0.017829
    16 C    -0.008381 -0.024496  0.013233
    17 H     0.014762 -0.008799  0.008176
    18 H    -0.001281 -0.017391  0.007680
    19 H    -0.011273  0.008714 -0.006454
    20 H     0.001147  0.017219 -0.008352
    21 H     0.016994  0.008543 -0.000678
    22 H    -0.009985 -0.042144 -0.011357
    23 Ti   -0.014259 -0.008561  0.005851
    24 Cl   -0.247774 -0.173065  0.049170
    25 Cl   -0.025309 -0.003678 -0.052070
    26 Cl    0.017807 -0.051133  0.019209
    27 Cl   -0.031078  0.026868  0.037754
 ----------------------------------------
 Mulliken charges used for AMS results%charges...
Hessian eigenvector     1(    -0.012) has overlap with TSRC:    0.49312E+00
Hessian eigenvector     1 has the largest overlap with TSRC:  0.49312
           Primitive Internal Coordinates (atoms in internal order)
-------------------------------------------------------------------------------
    index    type      i       j       k       l   value(A,deg)     Max Ovl Vect
-------------------------------------------------------------------------------
       1     bnd       1       3       0       0     1.08947969    -0.00040044
       2     bnd       2       6       0       0     1.08452793     0.00204914
       3     bnd       2      14       0       0     1.53826015    -0.02564001
       4     bnd       2       3       0       0     1.35768162    -0.04280320
       5     bnd       3       4       0       0     1.46584804     0.02722827
       6     bnd       4      22       0       0     1.07193149     0.00826839
       7     bnd       4       5       0       0     1.23024124    -0.05156600
       8     bnd       8      10       0       0     1.08367208    -0.00010368
       9     bnd       7      10       0       0     1.08280949     0.00011252
      10     bnd       9      10       0       0     1.08254495     0.00110706
      11     bnd      11      21       0       0     1.07254828     0.00124205
      12     bnd      11      12       0       0     1.40019400    -0.00019664
      13     bnd      12      13       0       0     1.40012234    -0.00287244
      14     bnd      13      14       0       0     1.40038983     0.00445221
      15     bnd      14      15       0       0     1.40004440     0.00525336
      16     bnd      15      19       0       0     1.07237388     0.00107843
      17     bnd      11      16       0       0     1.40031920     0.00003155
      18     bnd      15      16       0       0     1.39994220    -0.00182676
      19     bnd      16      20       0       0     1.07255182     0.00112872
      20     bnd      12      17       0       0     1.07254494     0.00115162
      21     bnd      13      18       0       0     1.07254706     0.00134346
      22     bnd      23      25       0       0     2.13327464     0.00983114
      23     bnd      23      27       0       0     2.13320932     0.01025755
      24     bnd       5      24       0       0     1.71570056     0.10854546
      25     bnd      23      24       0       0     2.13378001     0.00207131
      26     bnd      23      26       0       0     2.13326305     0.01155378
      27     bnd       2      10       0       0     2.52093835     0.69719233
      28     bnd      10      14       0       0     2.87409323     0.13252748
      29     bnd      10      15       0       0     3.08108212    -0.00443725
      30     ang       6       2      14       0   117.28749417    -0.00425918
      31     ang       6       2       3       0   120.63851769    -0.00195227
      32     ang       6       2      10       0    83.95474286    -0.00330767
      33     ang      14       2       3       0   120.87600591     0.03510763
      34     ang      14       2      10       0    86.59260643    -0.17186000
      35     ang       3       2      10       0   109.74629891     0.02278500
      36     ang       1       3       2       0   120.29726683     0.00549057
      37     ang       1       3       4       0   115.82274297     0.00704795
      38     ang       2       3       4       0   123.87518833    -0.01255051
      39     ang       3       4      22       0   114.53253743     0.00174034
      40     ang       3       4       5       0   126.21964336     0.00305294
      41     ang      22       4       5       0   119.24771288    -0.00488334
      42     ang       4       5      24       0   117.45860254     0.01002977
      43     ang       8      10       7       0   118.83426218     0.00671920
      44     ang       8      10       9       0   118.86873647     0.00494869
      45     ang       8      10       2       0    95.60431146    -0.01605789
      46     ang       8      10      14       0    78.60564847    -0.00930387
      47     ang       8      10      15       0    89.16749742    -0.00498677
      48     ang       7      10       9       0   118.95304822     0.00579136
      49     ang       7      10       2       0    97.63010761    -0.02686444
      50     ang       7      10      14       0    82.12797974     0.00102876
      51     ang       7      10      15       0    55.72039862     0.00212849
      52     ang       9      10       2       0    95.06408066    -0.00570773
      53     ang       9      10      14       0   127.33337800    -0.03707432
      54     ang       9      10      15       0   140.92053066    -0.03254906
      55     ang       2      10      15       0    52.84108822    -0.03529928
      56     ang      21      11      12       0   119.99961465    -0.00045153
      57     ang      21      11      16       0   120.00172003    -0.00061012
      58     ang      12      11      16       0   119.99861264     0.00106165
      59     ang      11      12      13       0   120.00768664    -0.00174782
      60     ang      11      12      17       0   120.00380553     0.00140281
      61     ang      13      12      17       0   119.98803670     0.00034501
      62     ang      12      13      14       0   119.97035038     0.00229227
      63     ang      12      13      18       0   120.01111513    -0.00179100
      64     ang      14      13      18       0   120.01853000    -0.00050127
      65     ang       2      14      13       0   120.18080764    -0.03113524
      66     ang       2      14      15       0   119.76933935     0.03260500
      67     ang       2      14      10       0    61.11299966     0.20268768
      68     ang      13      14      15       0   120.03001031    -0.00146976
      69     ang      13      14      10       0   123.52812703    -0.06008209
      70     ang      15      14      10       0    84.81369795    -0.05049308
      71     ang      14      15      19       0   120.02749546     0.00280209
      72     ang      14      15      16       0   119.98606274    -0.00278685
      73     ang      14      15      10       0    68.27954202     0.05162635
      74     ang      19      15      16       0   119.98617088    -0.00001524
      75     ang      19      15      10       0    73.17551548     0.02525656
      76     ang      16      15      10       0   131.12043206    -0.09400576
      77     ang      11      16      15       0   120.00600900     0.00265050
      78     ang      11      16      20       0   120.00407583    -0.00065272
      79     ang      15      16      20       0   119.98988521    -0.00199778
      80     ang      25      23      27       0   109.55004545     0.00212283
      81     ang      25      23      24       0   109.36931047     0.00029694
      82     ang      25      23      26       0   109.54176861     0.00363132
      83     ang      27      23      24       0   109.41699253    -0.00290524
      84     ang      27      23      26       0   109.54452805     0.00071964
      85     ang      24      23      26       0   109.40436751    -0.00386550
      86     lai       5      24      23      25   180.12249577    -0.01649609
      87     lao       5      24      23      25    87.78738089    -0.00298209
      88     dih       6       2      14      13    32.72901897     0.11505186
      89     dih       6       2      14      15   214.34871324     0.01824697
      90     dih       6       2      14      10   -81.40635745     0.09601355
      91     dih       3       2      14      13   225.15820072    -0.05372219
      92     dih       3       2      14      15    46.77789500    -0.15052708
      93     dih       3       2      14      10   111.02282431    -0.07276050
      94     dih      10       2      14      13   114.13537641     0.01903831
      95     dih      10       2      14      15   -64.24492931    -0.07776658
      96     dih       6       2       3       1   185.95830619    -0.05492198
      97     dih       6       2       3       4     6.78953566    -0.05337418
      98     dih      14       2       3       1    -6.88682437     0.11946263
      99     dih      14       2       3       4   173.94440510     0.12101043
     100     dih      10       2       3       1    91.22211340    -0.06438888
     101     dih      10       2       3       4   -87.94665713    -0.06284108
     102     dih       1       3       4      22   179.96823206    -0.00244232
     103     dih       1       3       4       5     0.08858578     0.03944210
     104     dih       2       3       4      22    -0.82908068    -0.00392899
     105     dih       2       3       4       5   179.29127304     0.03795542
     106     dih       3       4       5      24   174.81319783    -0.13723210
     107     dih      22       4       5      24    -5.06131572    -0.09349373
     108     dih      21      11      12      13   179.73209554     0.00439900
     109     dih      21      11      12      17    -0.01819856     0.00129044
     110     dih      16      11      12      13    -0.18441647     0.00810207
     111     dih      16      11      12      17   180.06528944     0.00499350
     112     dih      11      12      13      14     0.38856308     0.00110018
     113     dih      11      12      13      18   180.41292067    -0.00935252
     114     dih      17      12      13      14   180.13889684     0.00420875
     115     dih      17      12      13      18     0.16325443    -0.00624396
     116     dih      12      13      14       2   181.35247917    -0.11093300
     117     dih      12      13      14      15    -0.27145905    -0.01412811
     118     dih      12      13      14      10   254.79131982     0.10444434
     119     dih      18      13      14       2     1.32811976    -0.10048029
     120     dih      18      13      14      15   179.70418154    -0.00367540
     121     dih      18      13      14      10    74.76696041     0.11489705
     122     dih       2      14      15      19    -1.47778700     0.11572922
     123     dih       2      14      15      16   178.33285611     0.11475867
     124     dih       2      14      15      10    52.35743791     0.20103725
     125     dih      13      14      15      19   180.13943686     0.01892433
     126     dih      13      14      15      16    -0.04992003     0.01795378
     127     dih      13      14      15      10   233.97466176     0.10423236
     128     dih      10      14      15      19   -53.83522491    -0.08530803
     129     dih      10      14      15      16   125.97541820    -0.08627858
     130     dih      21      11      16      15   179.94637485    -0.00057333
     131     dih      21      11      16      20     0.00933618    -0.00338605
     132     dih      12      11      16      15    -0.13711492    -0.00427640
     133     dih      12      11      16      20   179.92584641    -0.00708911
     134     dih      14      15      16      11     0.25422630    -0.00875153
     135     dih      14      15      16      20   180.19127397    -0.00593881
     136     dih      19      15      16      11   180.06494826    -0.00972208
     137     dih      19      15      16      20     0.00199593    -0.00690936
     138     dih      10      15      16      11    86.61686195     0.01246468
     139     dih      10      15      16      20   266.55390962     0.01527740
     140     dih       6       2      10       8    59.70375092     0.04836570
     141     dih       6       2      10       7   179.84068386     0.04686263
     142     dih       6       2      10       9   -60.01349564     0.04681226
     143     dih       6       2      10      14   117.91370930     0.02496389
     144     dih       6       2      10      15   144.38537219     0.04857256
     145     dih      14       2      10       8   -58.20995838     0.02340181
     146     dih      14       2      10       7    61.92697455     0.02189874
     147     dih      14       2      10       9   182.07279506     0.02184838
     148     dih      14       2      10      15    26.47166289     0.02360867
     149     dih       3       2      10       8   180.13283135     0.04728951
     150     dih       3       2      10       7   -59.73023572     0.04578645
     151     dih       3       2      10       9    60.41558479     0.04573608
     152     dih       3       2      10      14   238.34278973     0.02388770
     153     dih       3       2      10      15   264.81445262     0.04749637
     154     dih       8      10      14       2   120.35292328     0.01893371
     155     dih       8      10      14      13    11.49636870    -0.06564592
     156     dih       8      10      14      15   248.63088698    -0.00950366
[...]
    25    Cl       0.000008   0.000012   0.000002
    26    Cl      -0.000004   0.000002  -0.000008
    27    Cl       0.000002  -0.000001  -0.000000
 
 Mode:    72      Frequency (cm-1):     3060.3164     Intensity (km/mol):        0.3202
 Index  Atom      ---- Displacements (x/y/z) ----
     1     H       0.000637  -0.001526  -0.000773
     2     C       0.000412  -0.002073  -0.000637
     3     C       0.000017   0.000144  -0.000005
     4     C      -0.000132  -0.000017  -0.000040
     5     O       0.000057  -0.000001   0.000004
     6     H      -0.006709   0.024458   0.008758
     7     H      -0.120384   0.543466   0.084501
     8     H       0.561857  -0.159769  -0.024665
     9     H      -0.399551  -0.335273  -0.260946
    10     C      -0.003477  -0.004087   0.017138
    11     C       0.000021  -0.000016   0.000006
    12     C      -0.000062   0.000049   0.000002
    13     C       0.000033   0.000023  -0.000038
    14     C       0.000061   0.000003  -0.000123
    15     C      -0.000029   0.000100   0.000012
    16     C      -0.000016  -0.000069  -0.000028
    17     H       0.000681  -0.000409   0.000032
    18     H       0.000002  -0.000426  -0.000402
    19     H       0.000341  -0.000163  -0.000243
    20     H      -0.000133   0.000669   0.000208
    21     H      -0.000164  -0.000100  -0.000122
    22     H       0.000310  -0.000146  -0.000326
    23    Ti       0.000000   0.000000  -0.000001
    24    Cl      -0.000000  -0.000000   0.000000
    25    Cl       0.000000   0.000000  -0.000000
    26    Cl       0.000000  -0.000000   0.000000
    27    Cl       0.000000  -0.000000   0.000000
 
 Mode:    73      Frequency (cm-1):     3101.1765     Intensity (km/mol):        5.6501
 Index  Atom      ---- Displacements (x/y/z) ----
     1     H       0.023610  -0.063435  -0.033905
     2     C       0.021708  -0.075629  -0.028569
     3     C      -0.003856   0.005064   0.002990
     4     C      -0.001181  -0.001022  -0.000542
     5     O       0.000564   0.000051  -0.000021
     6     H      -0.247524   0.891901   0.337574
     7     H       0.005206  -0.023183  -0.004243
     8     H      -0.011696   0.003416   0.000533
     9     H       0.008976   0.007624   0.006667
    10     C      -0.000146   0.001475  -0.000601
    11     C      -0.000575  -0.000256  -0.000304
    12     C       0.001654  -0.001273   0.000023
    13     C      -0.001047   0.009527   0.003635
    14     C       0.001848  -0.000167   0.000422
    15     C       0.001999  -0.000675   0.000370
    16     C      -0.000044   0.000538   0.000219
    17     H      -0.025863   0.014007  -0.002947
    18     H       0.011445  -0.108179  -0.041616
    19     H      -0.022969   0.013149  -0.002590
    20     H       0.000695  -0.008196  -0.003129
    21     H       0.006790   0.004421   0.004158
    22     H      -0.000035   0.010886   0.006053
    23    Ti       0.000000  -0.000001  -0.000000
    24    Cl      -0.000000   0.000000   0.000000
    25    Cl       0.000000   0.000000   0.000000
    26    Cl      -0.000000   0.000000   0.000000
    27    Cl      -0.000000   0.000001  -0.000000
 
 Mode:    74      Frequency (cm-1):     3122.2553     Intensity (km/mol):        5.2597
 Index  Atom      ---- Displacements (x/y/z) ----
     1     H       0.001234  -0.001600  -0.001112
     2     C      -0.002044   0.008065   0.003136
     3     C      -0.000046   0.000076   0.000023
     4     C       0.000062   0.000160   0.000104
     5     O      -0.000049  -0.000012  -0.000004
     6     H       0.024459  -0.096325  -0.037003
     7     H      -0.000634   0.003888   0.000694
     8     H       0.000113   0.000102  -0.000185
     9     H      -0.001292  -0.001279  -0.001032
    10     C       0.000163  -0.000270   0.000037
    11     C      -0.022417  -0.013398  -0.013257
    12     C       0.039068  -0.022253   0.003986
    13     C      -0.008047   0.054197   0.020147
    14     C       0.001706   0.000256   0.000650
    15     C       0.007237  -0.005126   0.000394
    16     C      -0.002669   0.022326   0.008423
    17     H      -0.472479   0.258898  -0.052907
    18     H       0.083034  -0.636629  -0.239869
    19     H      -0.092870   0.053173  -0.010064
    20     H       0.033693  -0.265934  -0.099724
    21     H       0.270393   0.163160   0.160637
    22     H       0.000205  -0.001547  -0.000871
    23    Ti      -0.000001   0.000001   0.000001
    24    Cl       0.000001  -0.000000  -0.000001
    25    Cl       0.000000   0.000000  -0.000000
    26    Cl      -0.000000   0.000000  -0.000000
    27    Cl       0.000000  -0.000001  -0.000000
 
 Mode:    75      Frequency (cm-1):     3129.7424     Intensity (km/mol):        0.1466
 Index  Atom      ---- Displacements (x/y/z) ----
     1     H      -0.048803   0.124882   0.068076
     2     C      -0.001206   0.002458   0.000965
     3     C       0.004439  -0.010879  -0.005945
     4     C       0.000502   0.000133   0.000050
     5     O      -0.000131   0.000009   0.000016
     6     H       0.006062  -0.028110  -0.010855
     7     H      -0.000221   0.002191   0.000385
     8     H      -0.002061   0.000640  -0.000086
     9     H      -0.000045  -0.000275  -0.000351
    10     C       0.000177  -0.000257   0.000028
    11     C       0.026045   0.016970   0.015988
    12     C       0.002779  -0.003266  -0.000450
    13     C      -0.005287   0.040146   0.015164
    14     C       0.000997  -0.000470   0.000105
    15     C      -0.022162   0.013350  -0.002119
    16     C       0.006283  -0.052874  -0.019940
    17     H      -0.040669   0.023807  -0.003870
    18     H       0.059764  -0.463702  -0.174980
    19     H       0.272923  -0.152538   0.030646
    20     H      -0.078029   0.621630   0.233308
    21     H      -0.316210  -0.191706  -0.188173
    22     H      -0.000243  -0.000187  -0.000133
    23    Ti       0.000001   0.000000  -0.000001
    24    Cl      -0.000001  -0.000000   0.000001
    25    Cl      -0.000000  -0.000000  -0.000000
    26    Cl       0.000000  -0.000000   0.000001
    27    Cl      -0.000000   0.000000   0.000000
 
 Mode:    76      Frequency (cm-1):     3138.6317     Intensity (km/mol):       13.1391
 Index  Atom      ---- Displacements (x/y/z) ----
     1     H       0.185949  -0.473040  -0.257725
     2     C       0.000461   0.006183   0.002511
     3     C      -0.016872   0.040329   0.022022
     4     C      -0.001492   0.000125   0.000128
     5     O       0.000243  -0.000090  -0.000066
     6     H       0.020917  -0.076827  -0.029947
     7     H      -0.000414   0.001304   0.000489
     8     H      -0.000255   0.000101   0.000011
     9     H      -0.000475  -0.000389  -0.000399
    10     C       0.000141  -0.000060  -0.000224
    11     C       0.028754   0.015522   0.016311
    12     C      -0.031369   0.014985  -0.004468
    13     C      -0.003663   0.030641   0.011698
    14     C       0.001438   0.000665   0.000786
    15     C       0.026917  -0.016282   0.002516
    16     C      -0.003773   0.017612   0.006047
    17     H       0.352283  -0.189668   0.041012
    18     H       0.044569  -0.345741  -0.130554
    19     H      -0.317451   0.178870  -0.035451
    20     H       0.027004  -0.201507  -0.075104
    21     H      -0.324114  -0.193534  -0.191513
    22     H       0.001668  -0.004586  -0.002361
    23    Ti       0.000001   0.000001  -0.000001
    24    Cl      -0.000001  -0.000000   0.000001
    25    Cl      -0.000001  -0.000001  -0.000000
    26    Cl       0.000000  -0.000000   0.000000
    27    Cl      -0.000000  -0.000000   0.000000
 
 Mode:    77      Frequency (cm-1):     3141.4785     Intensity (km/mol):        3.1720
 Index  Atom      ---- Displacements (x/y/z) ----
     1     H      -0.236997   0.604593   0.328938
     2     C      -0.001877  -0.002444  -0.000950
     3     C       0.021485  -0.051615  -0.028247
     4     C       0.001927   0.000104  -0.000018
     5     O      -0.000376   0.000087   0.000076
     6     H      -0.011579   0.033871   0.013072
     7     H       0.000587  -0.000978  -0.000587
     8     H       0.000348   0.000103  -0.000112
     9     H      -0.000561  -0.000421  -0.000536
    10     C      -0.000104   0.000062   0.000300
    11     C       0.010779   0.003734   0.005231
    12     C      -0.034427   0.017404  -0.004477
    13     C      -0.001632   0.021538   0.008553
    14     C       0.001201  -0.000965  -0.000095
    15     C      -0.003160   0.000348  -0.000866
    16     C      -0.004336   0.034617   0.013011
    17     H       0.387190  -0.209333   0.044588
    18     H       0.029433  -0.238581  -0.090530
    19     H       0.020530  -0.010147   0.003223
    20     H       0.049459  -0.393012  -0.147428
    21     H      -0.110122  -0.063046  -0.063982
    22     H      -0.001539   0.004287   0.002139
    23    Ti      -0.000002  -0.000000   0.000001
    24    Cl       0.000001   0.000000  -0.000001
    25    Cl       0.000000   0.000001   0.000000
    26    Cl       0.000000   0.000000  -0.000000
    27    Cl       0.000001  -0.000001   0.000000
 
 Mode:    78      Frequency (cm-1):     3150.5786     Intensity (km/mol):       20.6366
 Index  Atom      ---- Displacements (x/y/z) ----
     1     H       0.082911  -0.211781  -0.114961
     2     C       0.000273   0.001710   0.000639
     3     C      -0.007536   0.017840   0.009789
     4     C      -0.000582   0.000032   0.000046
     5     O       0.000086  -0.000037  -0.000027
     6     H       0.006185  -0.019722  -0.007505
     7     H      -0.000557   0.002578   0.000675
     8     H      -0.002073   0.000436   0.000034
     9     H       0.001105   0.000656   0.000666
    10     C       0.000157  -0.000304  -0.000186
    11     C      -0.040001  -0.026117  -0.024590
    12     C      -0.042021   0.024007  -0.004319
    13     C      -0.000298   0.018530   0.007739
    14     C       0.000625  -0.001348  -0.000340
    15     C      -0.035037   0.020058  -0.003821
    16     C       0.003795  -0.007034  -0.001639
    17     H       0.469042  -0.257067   0.052580
    18     H       0.023331  -0.202418  -0.077341
    19     H       0.410148  -0.228960   0.045956
    20     H      -0.013062   0.076909   0.027641
    21     H       0.457295   0.278163   0.272522
    22     H       0.000546  -0.002298  -0.001195
    23    Ti       0.000003   0.000001  -0.000003
    24    Cl      -0.000002  -0.000000   0.000002
    25    Cl      -0.000001  -0.000002  -0.000000
    26    Cl       0.000000  -0.000000   0.000001
    27    Cl      -0.000001   0.000000   0.000000
 
 Mode:    79      Frequency (cm-1):     3156.9584     Intensity (km/mol):        8.1365
 Index  Atom      ---- Displacements (x/y/z) ----
     1     H       0.069761  -0.179444  -0.097103
     2     C       0.000440  -0.000220  -0.000261
     3     C      -0.006237   0.015132   0.008357
     4     C      -0.000598  -0.000143  -0.000050
     5     O       0.000172  -0.000016  -0.000023
     6     H       0.001035   0.004020   0.002070
     7     H      -0.000663   0.002915   0.000676
     8     H      -0.002077   0.000358  -0.000010
     9     H       0.001064   0.000577   0.000708
    10     C       0.000172  -0.000323  -0.000131
    11     C       0.026222   0.014522   0.015046
    12     C       0.017307  -0.010552   0.001484
    13     C       0.000530  -0.006415  -0.002518
    14     C      -0.000579  -0.001898  -0.000945
    15     C      -0.056089   0.029836  -0.007033
    16     C      -0.004512   0.040931   0.015588
    17     H      -0.192851   0.106521  -0.021307
    18     H      -0.008410   0.066879   0.025433
    19     H       0.631948  -0.350183   0.072050
    20     H       0.055953  -0.445727  -0.167361
    21     H      -0.280657  -0.167439  -0.165936
    22     H       0.000110  -0.001120  -0.000535
    23    Ti      -0.000001   0.000001   0.000002
    24    Cl       0.000001  -0.000000  -0.000001
    25    Cl      -0.000000  -0.000000  -0.000000
    26    Cl      -0.000001   0.000000  -0.000001
    27    Cl       0.000000  -0.000001  -0.000000
 
 Mode:    80      Frequency (cm-1):     3234.2323     Intensity (km/mol):        2.0062
 Index  Atom      ---- Displacements (x/y/z) ----
     1     H       0.000044  -0.000009  -0.000129
     2     C       0.000028   0.000126   0.000128
     3     C       0.000135  -0.000010   0.000040
     4     C       0.000057  -0.000139  -0.000060
     5     O       0.000008   0.000008   0.000003
     6     H       0.000047  -0.000780  -0.000567
     7     H      -0.021856   0.012033  -0.002214
     8     H       0.665831  -0.193247  -0.046060
     9     H       0.477586   0.409598   0.332928
    10     C      -0.094439  -0.019262  -0.023981
    11     C       0.000062  -0.000005   0.000027
    12     C       0.000038   0.000026   0.000004
    13     C       0.000048   0.000147  -0.000005
    14     C      -0.000036  -0.000035  -0.000043
    15     C      -0.000020   0.000130   0.000049
    16     C      -0.000034  -0.000033  -0.000028
    17     H      -0.000207   0.000098  -0.000030
    18     H       0.000185  -0.002084  -0.000724
    19     H       0.000551  -0.000410   0.000043
    20     H      -0.000043   0.000225   0.000085
    21     H      -0.000374  -0.000245  -0.000200
    22     H      -0.000728   0.001558   0.001021
    23    Ti       0.000001   0.000000  -0.000001
    24    Cl      -0.000001  -0.000000   0.000001
    25    Cl      -0.000000  -0.000000   0.000000
    26    Cl       0.000000   0.000000   0.000001
    27    Cl      -0.000000   0.000000   0.000000
 
 Mode:    81      Frequency (cm-1):     3237.7276     Intensity (km/mol):        2.1749
 Index  Atom      ---- Displacements (x/y/z) ----
     1     H       0.000927  -0.002017  -0.001070
     2     C      -0.000248   0.000648   0.000353
     3     C       0.000024   0.000058   0.000033
     4     C      -0.000021   0.000167   0.000057
     5     O       0.000002  -0.000017  -0.000005
     6     H       0.002450  -0.010568  -0.002127
     7     H       0.171588  -0.797437  -0.105934
     8     H       0.398160  -0.094673  -0.019922
     9     H      -0.269787  -0.204489  -0.175880
    10     C      -0.025249   0.092508   0.025360
    11     C      -0.000008  -0.000037  -0.000018
    12     C       0.000054   0.000006   0.000013
    13     C      -0.000046   0.000201   0.000007
    14     C      -0.000034  -0.000059  -0.000090
    15     C      -0.000366   0.000198  -0.000012
    16     C      -0.000026  -0.000004   0.000008
    17     H      -0.000239   0.000149  -0.000031
    18     H       0.000362  -0.002322  -0.000808
    19     H       0.004436  -0.002486   0.000522
    20     H       0.000010  -0.000079  -0.000034
    21     H       0.000193   0.000090   0.000106
    22     H       0.000502  -0.001399  -0.000893
    23    Ti       0.000000   0.000000  -0.000000
    24    Cl      -0.000000  -0.000000   0.000000
    25    Cl      -0.000000  -0.000000  -0.000000
    26    Cl       0.000000   0.000000   0.000000
    27    Cl       0.000000  -0.000000  -0.000000

PES point character: Geometry corresponds to a stationary point on the PES with >1 negative frequencies.




 ============================
 Statistical Thermal Analysis  ***  ideal gas assumed  ***
 ============================
  
 Pressure:                  1.000000 atm.
 Temperature:             298.150000 K



 Moments of Inertia [amu*bohr^2] and principal axis
 ==================================================

        3464.9586      30203.0667      31452.5507
 ------------------------------------------------
           0.9198          0.2480         -0.3042
           0.2290          0.2903          0.9291
          -0.3187          0.9242         -0.2102


 The rotational contribution to the molecular entropy includes
 a term, dependent on the symmetry number sigma. The results 
 reported below were computed using sigma = 1, determined from
 the point group symmetry of the input geometry (NOSYM). 
 If this is not the correct symmetry, try symmetrizing the molecule before
 running the calculation (note: linear molecules should be aligned along one
 of the Cartesian axes).
 Contributions from frequencies below 20 1/cm are not included in vibrational sums.
 Their contributions, if any, are reported separately.


     Temp                                                        Transl      Rotat     Vibrat     Total
     ----                                                        ------      -----     ------     -----

     298.15   Entropy (cal/mol-K):                               43.321     36.441     52.895    132.657
              Nuclear Internal Energy (kcal/mol):                 0.889      0.889    119.853    121.630
              Constant Volume Heat Capacity (cal/mol-K):          2.981      2.981     51.258     57.220
          (c) Constant Volume Heat Capacity (cal/mol-K):          2.981      2.981     46.600     52.562

       Summary of energy terms
                                                   hartree              eV         kcal/mol           kJ/mol
                                      --------------------     -----------       ----------      -----------
      Energy from Engine:               -5.522983052822938       -150.2880         -3465.72        -14500.59
      Nuclear Internal Energy:           0.193830350031465          5.2744           121.63           508.90
  (c) Nuclear Internal Energy:           0.191409725500246          5.2085           120.11           502.55
      Internal Energy U:                -5.329152702791473       -145.0136         -3344.09        -13991.69
      pV/n = RT:                         0.000944186013486          0.0257             0.59             2.48
      Enthalpy H:                       -5.328208516777987       -144.9879         -3343.50        -13989.21
      -T*S:                             -0.063029422583685         -1.7151           -39.55          -165.48
  (c) -T*S:                             -0.061403036316224         -1.6709           -38.53          -161.21
      Gibbs free energy:                -5.391237939361671       -146.7030         -3383.05        -14154.69
 
 
 
  (c) The properties marked with this symbol have been corrected using 'low vibrational frequency free rotor
      interpolation corrections'. For those terms all positive frequencies are used (also ones below 20 1/cm),
      but the contribution to the partition function of small vibrational frequencies is modified as described
      in the following paper:
      S. Grimme, 'Supramolecular Binding Thermodynamics by Dispersion-Corrected Density Functional Theory'
      (Chem. Eur. J. 2012, 18, 9955-9964)
      Configuration: Dampener Frequency          :   100.000 1/cm
                     Dampener Alpha              :     4.000
                     Averaging Moment of Inertia : 1.000E-44 kg m2

--------------
Atomic charges
--------------
  Index   Atom    Charge
      1      H   -0.2085
      2      C    0.1933
      3      C    0.2429
      4      C    0.6196
      5      O   -0.5104
      6      H   -0.1913
      7      H   -0.1543
      8      H   -0.1701
      9      H   -0.1755
     10      C    0.5527
     11      C    0.2453
     12      C    0.2429
     13      C    0.2948
     14      C    0.0289
     15      C    0.2945
     16      C    0.2442
     17      H   -0.2464
     18      H   -0.2613
     19      H   -0.2565
     20      H   -0.2455
     21      H   -0.2426
     22      H   -0.2962
     23     Ti    0.8936
     24     Cl   -0.1850
     25     Cl   -0.2358
     26     Cl   -0.2375
     27     Cl   -0.2358


Dipole moment vector    (Debye):    -5.15379280   -0.96764226    0.63309474
              magnitude (Debye):     5.28192396


ERROR: Transition state search failed. (Converged, but did not find a transition state.)


AMS application finished. Exiting.
NORMAL TERMINATION
     Total cpu time:  190236.57
  Total system time:    2594.86
 Total elapsed time:  369346.81
