

 Parallel Execution: Process Information
 ==============================================================================
 Rank   Node Name                              NodeID   MyNodeRank  NodeMaster
    0   DESKTOP-1M8FOJT                           0          0          0
    1   DESKTOP-1M8FOJT                           0          1         -1
    2   DESKTOP-1M8FOJT                           0          2         -1
    3   DESKTOP-1M8FOJT                           0          3         -1
 ==============================================================================


May use up to 4096MB of RAM as shared memory on node 0

 *******************************************************************************
 *                                                                             *
 *  --------------------------------                                           *
 *   Amsterdam Modeling Suite (AMS)              2021.106                      *
 *  --------------------------------                                           *
 *                                               r99350 2021-12-03             *
 *                                                                             *
 *                                                                             *
 *                              =================                              *
 *                              |               |                              *
 *                              |     A M S     |                              *
 *                              |               |                              *
 *                              =================                              *
 *                                                                             *
 *                                                                             *
 *   Online information and documentation:  https://www.scm.com/support/       *
 *   E-mail:  support@scm.com   info@scm.com                                   *
 *                                                                             *
 *   Scientific publications using AMS results must be properly referenced     *
 *   See the User Manuals (or the web site) for recommended citations          *
 *   The terms and conditions of the End User License Agreement apply to       *
 *   the use of AMS, https://www.scm.com/license-terms/                        *
 *                                                                             *
 *********************  x86_64_windows_amdZen / intelmpi  **********************
 
 Licensed to: Mr. Yuman Hordijk / SCM / Amsterdam / Netherlands 2021-10-04 09:39:26
 SCM User ID: u24430
  
 AMS 2021.106  RunTime: Jan26-2022 15:48:44  ShM Nodes: 1  Procs: 4

 AMS jobname: ams
 AMS jobid  : 519749203

 Start   directory: D:/Users/Yuman/Desktop/MasterProject/manual_calculations/substrate_conformers_H/tmp..15080.0.noindex/
 Results directory: D:/Users/Yuman/Desktop/MasterProject/manual_calculations/substrate_conformers_H/1.results/
 Scratch directory: Z:/SCMTMP/amstmp_ams_kid0.519749203/


 Communication costs MPI_COMM_WORLD:      1.449 usec per message,   0.0049 usec per 8-byte item
 Communication costs for intra-node:      1.869 usec per message,   0.0041 usec per 8-byte item

 RNG seed: 1610165401 -568711088 636217894 1766178131 436787529 595831617 -987036240 -890600535



                      ************************************************************************
                      *  ADF 2021.106  RunTime: Jan26-2022 15:48:44  ShM Nodes: 1  Procs: 4  *
                      ************************************************************************
  
       ***************************
       *  GEOMETRY OPTIMIZATION  *
       ***************************

Optimization Method                    Quasi Newton
Optimization Coordinates               Delocalized Coordinates
Optimize lattice                       F
 
 ------------------------------------------------------
 Convergence criteria (Hartree,Angstrom)
 ------------------------------------------------------
 Maximum gradient               0.001000000000
 Maximum rms gradient           0.000666666667
 Maximum step allowed           0.010000000000
 Maximum rms step allowed       0.006666666667
 Maximum energy change allowe   0.000080000000
 Maximum stress energy allowe   0.000500000000
 
Initial model Hessian                  Automatic Hessian
 
------------------------------------
Quasi-Newton Optimizer Parameters
------------------------------------
Hessian Update Method                  BFGS
Maximum number of steps                  250
First GDIIS cycle                          0
Maximum GDIIS vectors                      0
Trust radius (bohr)                        0.200000
Trust radius varies                        T
Constraints converged at all steps         T
Use projector                              T
 
 Rigid motions settings for: old optimizer
 Atomic rotations (x,y,z):     T T T
 Atomic translations (x,y,z):  T T T
 Tolerance:                   1.000000000000000E-006
 
--------
Geometry
--------
Formula: C3H4O
Atoms
  Index Symbol   x (angstrom)   y (angstrom)   z (angstrom)
      1      C    -2.96464030    -1.81079070    -0.87026590
      2      C    -2.03249404    -1.13182777    -0.19522006
      3      C    -1.90017563     0.32433749    -0.32240398
      4      O    -1.08041788     0.97725965     0.27117462
      5      H    -2.62760471     0.79087475    -1.02275360
      6      H    -3.63754904    -1.26113646    -1.52799437
      7      H    -1.32902643    -1.61002550     0.47660735
      8      H    -3.04940354    -2.88241179    -0.76613408
 
Total System Charge             0.00000
Bonding info available!
 
 
----------------
ADF Engine Input
----------------
 
 Basis
 Type TZ2P
 Core None
 End
 XC
 GGA OLYP
 End
 

 Title: *** (NO TITLE) ***

 Using automatic Hessian for delocalized coordinates.
 *** GOStep1 ***

 Energy gradients wrt nuclear displacements
 ==========================================

     Atom      Cartesian (a.u./angstrom)
                 X         Y         Z
 ----------------------------------------
     1 C    -0.004387 -0.011132 -0.001696
     2 C     0.001032  0.002772  0.000290
     3 C     0.018736  0.018918  0.012991
     4 O    -0.029946 -0.029767 -0.020488
     5 H     0.004524 -0.004963  0.004622
     6 H     0.004536  0.010137  0.002234
     7 H    -0.002674  0.005834 -0.003413
     8 H     0.008179  0.008200  0.005460
 ----------------------------------------
 Mulliken charges used for AMS results%charges...
 
----------------------------------------------------------------------
Geometry Convergence after Step   1       (Hartree/Angstrom,Angstrom)
----------------------------------------------------------------------
current energy                               -1.68661794 Hartree
energy change                      -1.68661794     0.00008000    F
constrained gradient max            0.03016152     0.00100000    F
constrained gradient rms            0.01232379     0.00066667    F
gradient max                        0.03016152
gradient rms                        0.01232379
cart. step max                      0.03279397     0.01000000    F
cart. step rms                      0.01248893     0.00666667    F
 
 
--------
Geometry
--------
Formula: C3H4O
Atoms
  Index Symbol   x (angstrom)   y (angstrom)   z (angstrom)
      1      C    -2.96742306    -1.81683415    -0.87248452
      2      C    -2.03396669    -1.13009275    -0.19532826
      3      C    -1.89177303     0.33443020    -0.31710483
      4      O    -1.05918203     1.00864546     0.27850180
      5      H    -2.62470001     0.80526846    -1.01638337
      6      H    -3.65194962    -1.29393043    -1.53877567
      7      H    -1.33273989    -1.61819937     0.47751976
      8      H    -3.05957722    -2.89300776    -0.77293492
 
Total System Charge             0.00000
Bonding info available!
 
 *** GOStep2 ***

 Energy gradients wrt nuclear displacements
 ==========================================

     Atom      Cartesian (a.u./angstrom)
                 X         Y         Z
 ----------------------------------------
     1 C    -0.007410 -0.010505 -0.004469
     2 C     0.000139 -0.000112  0.000241
     3 C    -0.009473 -0.008103 -0.006996
     4 O     0.011311  0.010222  0.008128
     5 H    -0.000711 -0.002029 -0.000065
     6 H     0.002618  0.004727  0.001386
     7 H    -0.000183  0.003229 -0.000918
     8 H     0.003708  0.002570  0.002693
 ----------------------------------------
 Mulliken charges used for AMS results%charges...

 dE(predicted):    -0.95879E-03, dE(actual):    -0.57041E-03, Trust radius:    0.200000, all in a.u.
 
----------------------------------------------------------------------
Geometry Convergence after Step   2       (Hartree/Angstrom,Angstrom)
----------------------------------------------------------------------
current energy                               -1.68718835 Hartree
energy change                      -0.00057041     0.00008000    F
constrained gradient max            0.01166063     0.00100000    F
constrained gradient rms            0.00563208     0.00066667    F
gradient max                        0.01166063
gradient rms                        0.00563208
cart. step max                      0.01176020     0.01000000    F
cart. step rms                      0.00376816     0.00666667    T
 
 
--------
Geometry
--------
Formula: C3H4O
Atoms
  Index Symbol   x (angstrom)   y (angstrom)   z (angstrom)
      1      C    -2.96502992    -1.81460324    -0.87140460
      2      C    -2.03287650    -1.12791004    -0.19365738
      3      C    -1.89150700     0.33787702    -0.31503129
      4      O    -1.05918726     1.00765465     0.27596820
      5      H    -2.62096298     0.81394603    -1.01585597
      6      H    -3.65787022    -1.30569063    -1.53971376
      7      H    -1.33361524    -1.62205309     0.47930661
      8      H    -3.06026244    -2.89294104    -0.77660182
 
Total System Charge             0.00000
Bonding info available!
 
 *** GOStep3 ***

 Energy gradients wrt nuclear displacements
 ==========================================

     Atom      Cartesian (a.u./angstrom)
                 X         Y         Z
 ----------------------------------------
     1 C    -0.004249 -0.004984 -0.002959
     2 C     0.001097  0.000690  0.000238
     3 C    -0.003134 -0.002229 -0.000687
     4 O     0.002604  0.003042  0.001210
     5 H    -0.000057 -0.000196 -0.000459
     6 H     0.001324  0.001812  0.000980
     7 H     0.000540  0.001270  0.000217
     8 H     0.001874  0.000593  0.001461
 ----------------------------------------
 Mulliken charges used for AMS results%charges...

 dE(predicted):    -0.12009E-03, dE(actual):    -0.17393E-03, Trust radius:    0.200000, all in a.u.
 
----------------------------------------------------------------------
Geometry Convergence after Step   3       (Hartree/Angstrom,Angstrom)
----------------------------------------------------------------------
current energy                               -1.68736228 Hartree
energy change                      -0.00017393     0.00008000    F
constrained gradient max            0.00479065     0.00100000    F
constrained gradient rms            0.00202853     0.00066667    F
gradient max                        0.00479065
gradient rms                        0.00202853
cart. step max                      0.01111586     0.01000000    F
cart. step rms                      0.00510506     0.00666667    T
 
 
--------
Geometry
--------
Formula: C3H4O
Atoms
  Index Symbol   x (angstrom)   y (angstrom)   z (angstrom)
      1      C    -2.96336205    -1.81154142    -0.86905416
      2      C    -2.03060353    -1.12606809    -0.19435432
      3      C    -1.88178241     0.33884738    -0.32462092
      4      O    -1.06086887     1.00762169     0.27805386
      5      H    -2.62704724     0.82006919    -1.00593289
      6      H    -3.65712160    -1.31680648    -1.54723942
      7      H    -1.33529444    -1.62518921     0.48007742
      8      H    -3.06523143    -2.89065341    -0.77391958
 
Total System Charge             0.00000
Bonding info available!
 
 *** GOStep4 ***

 Energy gradients wrt nuclear displacements
 ==========================================

     Atom      Cartesian (a.u./angstrom)
                 X         Y         Z
 ----------------------------------------
     1 C    -0.000286  0.000765  0.000646
     2 C    -0.001938  0.000509  0.002218
     3 C     0.007372 -0.000038 -0.006156
     4 O    -0.004429 -0.000670  0.000572
     5 H    -0.002364  0.000992  0.002227
     6 H     0.000247 -0.000749  0.000227
     7 H     0.000707 -0.000099  0.000456
     8 H     0.000691 -0.000710 -0.000190
 ----------------------------------------
 Mulliken charges used for AMS results%charges...

 dE(predicted):    -0.46925E-04, dE(actual):     0.37148E-04, Trust radius:    0.020000, all in a.u.
 
----------------------------------------------------------------------
Geometry Convergence after Step   4       (Hartree/Angstrom,Angstrom)
----------------------------------------------------------------------
current energy                               -1.68732513 Hartree
energy change                       0.00003715     0.00008000    T
constrained gradient max            0.00760756     0.00100000    F
constrained gradient rms            0.00237206     0.00066667    F
gradient max                        0.00760756
gradient rms                        0.00237206
cart. step max                      0.00420436     0.01000000    T
cart. step rms                      0.00148244     0.00666667    T
 
 
--------
Geometry
--------
Formula: C3H4O
Atoms
  Index Symbol   x (angstrom)   y (angstrom)   z (angstrom)
      1      C    -2.96297594    -1.81146214    -0.86936857
      2      C    -2.03125303    -1.12587042    -0.19370192
      3      C    -1.88518129     0.33948960    -0.32041656
      4      O    -1.05889421     1.00773622     0.27671278
      5      H    -2.62526343     0.81885803    -1.00845400
      6      H    -3.65823347    -1.31673217    -1.54623726
      7      H    -1.33540563    -1.62513561     0.47962124
      8      H    -3.06410456    -2.89060386    -0.77514571
 
Total System Charge             0.00000
Bonding info available!
 
 *** GOStep5 ***

 Energy gradients wrt nuclear displacements
 ==========================================

     Atom      Cartesian (a.u./angstrom)
                 X         Y         Z
 ----------------------------------------
     1 C     0.000298  0.000708  0.000747
     2 C    -0.001270  0.000065  0.001088
     3 C     0.003638 -0.000237 -0.003677
     4 O    -0.002244  0.000098  0.000411
     5 H    -0.001568  0.000557  0.001099
     6 H     0.000150 -0.000734  0.000098
     7 H     0.000506  0.000063  0.000225
     8 H     0.000491 -0.000520  0.000008
 ----------------------------------------
 Mulliken charges used for AMS results%charges...

 dE(predicted):    -0.54758E-04, dE(actual):    -0.42056E-04, Trust radius:    0.040000, all in a.u.
 
----------------------------------------------------------------------
Geometry Convergence after Step   5       (Hartree/Angstrom,Angstrom)
----------------------------------------------------------------------
current energy                               -1.68736718 Hartree
energy change                      -0.00004206     0.00008000    T
constrained gradient max            0.00388100     0.00100000    F
constrained gradient rms            0.00128723     0.00066667    F
gradient max                        0.00388100
gradient rms                        0.00128723
cart. step max                      0.00629991     0.01000000    T
cart. step rms                      0.00284089     0.00666667    T
 
 
--------
Geometry
--------
Formula: C3H4O
Atoms
  Index Symbol   x (angstrom)   y (angstrom)   z (angstrom)
      1      C    -2.96244684    -1.81186116    -0.87061697
      2      C    -2.03187702    -1.12575655    -0.19318691
      3      C    -1.88908190     0.33992597    -0.31569033
      4      O    -1.05827549     1.00780885     0.27667646
      5      H    -2.62044561     0.81592182    -1.01475392
      6      H    -3.66264398    -1.31443414    -1.54062397
      7      H    -1.33584415    -1.62422512     0.47984453
      8      H    -3.06069657    -2.89110002    -0.77863890
 
Total System Charge             0.00000
Bonding info available!
 
 *** GOStep6 ***

 Energy gradients wrt nuclear displacements
 ==========================================

     Atom      Cartesian (a.u./angstrom)
                 X         Y         Z
 ----------------------------------------
     1 C     0.000254 -0.000571 -0.000255
     2 C     0.000172  0.000130  0.000095
     3 C    -0.000383 -0.000145 -0.000540
     4 O    -0.000031  0.000660 -0.000059
     5 H    -0.000414 -0.000220 -0.000180
     6 H    -0.000189 -0.000262  0.000450
     7 H     0.000032  0.000527  0.000168
     8 H     0.000559 -0.000119  0.000322
 ----------------------------------------
 Mulliken charges used for AMS results%charges...

 dE(predicted):    -0.24435E-04, dE(actual):    -0.15700E-04, Trust radius:    0.040000, all in a.u.
 
---------------------------------------------------------
Geometry Convergence after Step   6       ** CONVERGED **
---------------------------------------------------------
current energy                               -1.68738288 Hartree
energy change                      -0.00001570     0.00008000    T
constrained gradient max            0.00043254     0.00100000    T
constrained gradient rms            0.00021456     0.00066667    T
gradient max                        0.00043254
gradient rms                        0.00021456
cart. step max                      0.00562061     0.01000000    T
cart. step rms                      0.00206021     0.00666667    T
 
Geometry optimization converged

Optimized geometry:
 
--------
Geometry
--------
Formula: C3H4O
Atoms
  Index Symbol   x (angstrom)   y (angstrom)   z (angstrom)
      1      C    -2.96244684    -1.81186116    -0.87061697
      2      C    -2.03187702    -1.12575655    -0.19318691
      3      C    -1.88908190     0.33992597    -0.31569033
      4      O    -1.05827549     1.00780885     0.27667646
      5      H    -2.62044561     0.81592182    -1.01475392
      6      H    -3.66264398    -1.31443414    -1.54062397
      7      H    -1.33584415    -1.62422512     0.47984453
      8      H    -3.06069657    -2.89110002    -0.77863890
 
Total System Charge             0.00000
Bonding info available!
 
Performing a single point calculation on the final geometry ...

 *** adf ***



 ===========================
 A T T A C H E D   F I L E S
 ===========================
  
 RestartZ:/SCMTMP/amstmp_ams_kid0.519749203/GOStep6.rkf*** GOStep6 ***



 ===============================
 M O D E L   P A R A M E T E R S
 ===============================
  
 DENSITY FUNCTIONAL POTENTIAL (scf)
    LDA:                               Exchange only                           == Not Default ==
    Gradient Corrections:              OPTX LYP                                == Not Default ==

 SPIN  (restricted / unrestr.)
    Molecule:                          Restricted                               
    Fragments:                         Restricted                               

 OTHER ASPECTS
    Relativistic Corrections:          scalar (ZORA,MAPA)                       

    Nuclear Charge Density Model:      Point Charge Nuclei                      
    Core Treatment:                    Frozen Orbital(s)                        

    Hyperfine or Zeeman Interaction:   ---                                      



 ===============
 G E O M E T R Y  ***  3D  Molecule  ***
 ===============
  

 ATOMS
 =====                            X Y Z                    CHARGE
                                (Angstrom)             Nucl     +Core       At.Mass
                       --------------------------    ----------------       -------
    1  C              -2.9624   -1.8119   -0.8706      6.00      6.00       12.0000
    2  C              -2.0319   -1.1258   -0.1932      6.00      6.00       12.0000
    3  C              -1.8891    0.3399   -0.3157      6.00      6.00       12.0000
    4  O              -1.0583    1.0078    0.2767      8.00      8.00       15.9949
    5  H              -2.6204    0.8159   -1.0148      1.00      1.00        1.0078
    6  H              -3.6626   -1.3144   -1.5406      1.00      1.00        1.0078
    7  H              -1.3358   -1.6242    0.4798      1.00      1.00        1.0078
    8  H              -3.0607   -2.8911   -0.7786      1.00      1.00        1.0078


 FRAGMENTS
 =========                                     Atoms in this Fragment     Cart. coord.s (Angstrom)
                                               -------------------------------------------------------
    1  C                                                 1  C           -2.9624   -1.8119   -0.8706
    2  C                                                 2  C           -2.0319   -1.1258   -0.1932
    3  C                                                 3  C           -1.8891    0.3399   -0.3157
    4  O                                                 4  O           -1.0583    1.0078    0.2767
    5  H                                                 5  H           -2.6204    0.8159   -1.0148
    6  H                                                 6  H           -3.6626   -1.3144   -1.5406
    7  H                                                 7  H           -1.3358   -1.6242    0.4798
    8  H                                                 8  H           -3.0607   -2.8911   -0.7786


 Interatomic Distance Matrix (Angstrom)
 --------------------------------------

   1)     0.000
   2)     1.340   0.000
   3)     2.468   1.478   0.000
   4)     3.591   2.392   1.220   0.000
   5)     2.654   2.189   1.118   2.036   0.000
   6)     1.089   2.124   2.717   3.934   2.429   0.000
   7)     2.122   1.089   2.190   2.654   3.137   3.097   0.000
   8)     1.088   2.125   3.468   4.508   3.741   1.852   2.483   0.000

 Min. Distance =    1.0876
 Max. Distance =    4.5083



 =====================================
 S Y M M E T R Y ,   E L E C T R O N S
 =====================================
  
 Symmetry: NOSYM

 Irreducible Representations, including subspecies
 -------------------------------------------------
 A


 Configuration of Valence Electrons
 ==================================
 ( determined in the SCF procedure )

 Total:   30

 Net Charge: 0 (Nuclei minus Electrons)

 Aufbau principle for MO occupations will be applied through SCF cycle no.     150
 Thereafter, the program will assign electrons to MOs that are spatially
 similar to the occupied MOs in a "reference" cycle ("KeepOrbitals").
 The reference cycle is always the PREVIOUS cycle: it will evolve with
 the SCF procedure.
1
 ***************************************************************************************************



                                      ****************************************
                                      *  B U I L D : (Fragments, Functions)  *
                                      ****************************************
  



 =======
 S F O s  ***  (Symmetrized Fragment Orbitals)  ***
 =======
  
 SFOs are linear combinations of (valence) Fragment Orbitals (FOs), such that the SFOs transform as the
 irreducible representations of the (molecular) symmetry group. Each SFO is therefore characterized by
 an irrep of the molecule and by a few (or only one) generating FOs.
 The SFOs constitute a symmetry-adapted basis for the Fock matrix. The MO eigenvector coefficients in
 this basis provide a direct interpretation of the MOs in terms of Frontier Orbital Theory.

 The SFOs are combined with auxiliary Core Functions (CFs) to ensure orthogonalization on the (frozen)
 Core Orbitals (COs). The Core-orthogonalized SFOs (CSFOs) constitute the true Fock basis.

 The FOs, and hence also the (C)SFOs are combinations of the elementary basis functions (BAS). The basis
 functions that participate in the description of the SFOs depend on the irrep. The indices of the
 involved functions are printed below for each irrep.
 (The complete list of primitive basis functions is printed in another section)

 Total nr. of (C)SFOs (summation over all irreps) :   148

 NOTE: a (C)SFO that is defined as a combination of more than one FO is usually NOT normalized.



                                       === A ===
 Nr. of SFOs :  148
 Cartesian basis functions that participate in this irrep (total number =   168) :
      1     2     3     4     5     6     9    12     7    10
     13     8    11    14    15    16    17    18    19    20
     21    22    23    24    25    26    27    28    29    30
     31    32    33    34    35    36    39    42    37    40
     43    38    41    44    45    46    47    48    49    50
     51    52    53    54    55    56    57    58    59    60
     61    62    63    64    65    66    69    72    67    70
     73    68    71    74    75    76    77    78    79    80
     81    82    83    84    85    86    87    88    89    90
     91    92    93    94    95    96    99   102    97   100
    103    98   101   104   105   106   107   108   109   110
    111   112   113   114   115   116   117   118   119   120
    121   122   123   124   125   126   127   128   129   130
    131   132   133   134   135   136   137   138   139   140
    141   142   143   144   145   146   147   148   149   150
    151   152   153   154   155   156   157   158   159   160
    161   162   163   164   165   166   167   168

    SFO  (index         Fragment          Generating    Expansion in Fragment Orbitals
  indx  incl.CFs)   Occup   Orb.Energy   FragmentType  Coeff.   Orbital     on Fragment
 --------------------------------------------------------------------------------------
     1       1      2.000     -10.064 au  C             1.00      1 S               1
                        (    -273.865 eV)
     2       2      2.000      -0.507 au  C             1.00      2 S               1
                        (     -13.802 eV)
     3       3       --         0.384 au  C             1.00      3 S               1
                        (      10.456 eV)
     4       4       --         5.458 au  C             1.00      4 S               1
                        (     148.511 eV)
     5       5       --        49.970 au  C             1.00      5 S               1
                        (    1359.766 eV)
     6       6      0.667      -0.189 au  C             1.00      1 P:x             1
                        (      -5.135 eV)
     7       7       --         0.168 au  C             1.00      2 P:x             1
                        (       4.559 eV)
     8       8       --         2.056 au  C             1.00      3 P:x             1
                        (      55.959 eV)
     9       9      0.667      -0.189 au  C             1.00      1 P:y             1
                        (      -5.135 eV)
    10      10       --         0.168 au  C             1.00      2 P:y             1
                        (       4.559 eV)
    11      11       --         2.056 au  C             1.00      3 P:y             1
                        (      55.959 eV)
    12      12      0.667      -0.189 au  C             1.00      1 P:z             1
                        (      -5.135 eV)
    13      13       --         0.168 au  C             1.00      2 P:z             1
                        (       4.559 eV)
    14      14       --         2.056 au  C             1.00      3 P:z             1
                        (      55.959 eV)
    15      15       --         1.235 au  C             1.00      1 D:z2            1
                        (      33.605 eV)
    16      16       --         1.235 au  C             1.00      1 D:x2-y2         1
                        (      33.605 eV)
    17      17       --         1.235 au  C             1.00      1 D:xy            1
                        (      33.605 eV)
    18      18       --         1.235 au  C             1.00      1 D:xz            1
                        (      33.605 eV)
    19      19       --         1.235 au  C             1.00      1 D:yz            1
                        (      33.605 eV)
    20      20       --         4.005 au  C             1.00      1 F:z3            1
                        (     108.969 eV)
    21      21       --         4.005 au  C             1.00      1 F:z             1
                        (     108.969 eV)
    22      22       --         4.005 au  C             1.00      1 F:xyz           1
                        (     108.969 eV)
    23      23       --         4.005 au  C             1.00      1 F:z2x           1
                        (     108.969 eV)
    24      24       --         4.005 au  C             1.00      1 F:z2y           1
                        (     108.969 eV)
    25      25       --         4.005 au  C             1.00      1 F:x             1
                        (     108.969 eV)
    26      26       --         4.005 au  C             1.00      1 F:y             1
                        (     108.969 eV)
    27      27      2.000     -10.064 au  C             1.00      1 S               2
                        (    -273.865 eV)
    28      28      2.000      -0.507 au  C             1.00      2 S               2
                        (     -13.802 eV)
    29      29       --         0.384 au  C             1.00      3 S               2
                        (      10.456 eV)
    30      30       --         5.458 au  C             1.00      4 S               2
                        (     148.511 eV)
    31      31       --        49.970 au  C             1.00      5 S               2
                        (    1359.766 eV)
    32      32      0.667      -0.189 au  C             1.00      1 P:x             2
                        (      -5.135 eV)
    33      33       --         0.168 au  C             1.00      2 P:x             2
                        (       4.559 eV)
    34      34       --         2.056 au  C             1.00      3 P:x             2
                        (      55.959 eV)
    35      35      0.667      -0.189 au  C             1.00      1 P:y             2
                        (      -5.135 eV)
    36      36       --         0.168 au  C             1.00      2 P:y             2
                        (       4.559 eV)
    37      37       --         2.056 au  C             1.00      3 P:y             2
                        (      55.959 eV)
    38      38      0.667      -0.189 au  C             1.00      1 P:z             2
                        (      -5.135 eV)
    39      39       --         0.168 au  C             1.00      2 P:z             2
                        (       4.559 eV)
    40      40       --         2.056 au  C             1.00      3 P:z             2
                        (      55.959 eV)
    41      41       --         1.235 au  C             1.00      1 D:z2            2
                        (      33.605 eV)
    42      42       --         1.235 au  C             1.00      1 D:x2-y2         2
                        (      33.605 eV)
    43      43       --         1.235 au  C             1.00      1 D:xy            2
                        (      33.605 eV)
    44      44       --         1.235 au  C             1.00      1 D:xz            2
                        (      33.605 eV)
    45      45       --         1.235 au  C             1.00      1 D:yz            2
                        (      33.605 eV)
    46      46       --         4.005 au  C             1.00      1 F:z3            2
                        (     108.969 eV)
    47      47       --         4.005 au  C             1.00      1 F:z             2
                        (     108.969 eV)
    48      48       --         4.005 au  C             1.00      1 F:xyz           2
                        (     108.969 eV)
    49      49       --         4.005 au  C             1.00      1 F:z2x           2
                        (     108.969 eV)
    50      50       --         4.005 au  C             1.00      1 F:z2y           2
                        (     108.969 eV)
    51      51       --         4.005 au  C             1.00      1 F:x             2
                        (     108.969 eV)
    52      52       --         4.005 au  C             1.00      1 F:y             2
                        (     108.969 eV)
    53      53      2.000     -10.064 au  C             1.00      1 S               3
                        (    -273.865 eV)
    54      54      2.000      -0.507 au  C             1.00      2 S               3
                        (     -13.802 eV)
    55      55       --         0.384 au  C             1.00      3 S               3
                        (      10.456 eV)
    56      56       --         5.458 au  C             1.00      4 S               3
                        (     148.511 eV)
    57      57       --        49.970 au  C             1.00      5 S               3
                        (    1359.766 eV)
    58      58      0.667      -0.189 au  C             1.00      1 P:x             3
                        (      -5.135 eV)
    59      59       --         0.168 au  C             1.00      2 P:x             3
                        (       4.559 eV)
    60      60       --         2.056 au  C             1.00      3 P:x             3
                        (      55.959 eV)
    61      61      0.667      -0.189 au  C             1.00      1 P:y             3
                        (      -5.135 eV)
    62      62       --         0.168 au  C             1.00      2 P:y             3
                        (       4.559 eV)
    63      63       --         2.056 au  C             1.00      3 P:y             3
                        (      55.959 eV)
    64      64      0.667      -0.189 au  C             1.00      1 P:z             3
                        (      -5.135 eV)
    65      65       --         0.168 au  C             1.00      2 P:z             3
                        (       4.559 eV)
    66      66       --         2.056 au  C             1.00      3 P:z             3
                        (      55.959 eV)
    67      67       --         1.235 au  C             1.00      1 D:z2            3
                        (      33.605 eV)
    68      68       --         1.235 au  C             1.00      1 D:x2-y2         3
                        (      33.605 eV)
    69      69       --         1.235 au  C             1.00      1 D:xy            3
                        (      33.605 eV)
    70      70       --         1.235 au  C             1.00      1 D:xz            3
                        (      33.605 eV)
    71      71       --         1.235 au  C             1.00      1 D:yz            3
                        (      33.605 eV)
    72      72       --         4.005 au  C             1.00      1 F:z3            3
                        (     108.969 eV)
    73      73       --         4.005 au  C             1.00      1 F:z             3
                        (     108.969 eV)
    74      74       --         4.005 au  C             1.00      1 F:xyz           3
                        (     108.969 eV)
    75      75       --         4.005 au  C             1.00      1 F:z2x           3
                        (     108.969 eV)
    76      76       --         4.005 au  C             1.00      1 F:z2y           3
                        (     108.969 eV)
    77      77       --         4.005 au  C             1.00      1 F:x             3
                        (     108.969 eV)
    78      78       --         4.005 au  C             1.00      1 F:y             3
                        (     108.969 eV)
    79      79      2.000     -18.926 au  O             1.00      1 S               4
                        (    -515.001 eV)
    80      80      2.000      -0.887 au  O             1.00      2 S               4
                        (     -24.136 eV)
    81      81       --         0.804 au  O             1.00      3 S               4
                        (      21.890 eV)
    82      82       --        13.488 au  O             1.00      4 S               4
                        (     367.032 eV)
    83      83       --       121.767 au  O             1.00      5 S               4
                        (    3313.451 eV)
    84      84      1.333      -0.329 au  O             1.00      1 P:x             4
                        (      -8.949 eV)
    85      85       --         0.351 au  O             1.00      2 P:x             4
                        (       9.557 eV)
    86      86       --         3.863 au  O             1.00      3 P:x             4
                        (     105.120 eV)
    87      87      1.333      -0.329 au  O             1.00      1 P:y             4
                        (      -8.949 eV)
    88      88       --         0.351 au  O             1.00      2 P:y             4
                        (       9.557 eV)
    89      89       --         3.863 au  O             1.00      3 P:y             4
                        (     105.120 eV)
    90      90      1.333      -0.329 au  O             1.00      1 P:z             4
                        (      -8.949 eV)
    91      91       --         0.351 au  O             1.00      2 P:z             4
                        (       9.557 eV)
    92      92       --         3.863 au  O             1.00      3 P:z             4
                        (     105.120 eV)
    93      93       --         1.072 au  O             1.00      1 D:z2            4
                        (      29.175 eV)
    94      94       --         1.072 au  O             1.00      1 D:x2-y2         4
                        (      29.175 eV)
    95      95       --         1.072 au  O             1.00      1 D:xy            4
                        (      29.175 eV)
    96      96       --         1.072 au  O             1.00      1 D:xz            4
                        (      29.175 eV)
    97      97       --         1.072 au  O             1.00      1 D:yz            4
                        (      29.175 eV)
    98      98       --         3.353 au  O             1.00      1 F:z3            4
                        (      91.230 eV)
    99      99       --         3.353 au  O             1.00      1 F:z             4
                        (      91.230 eV)
   100     100       --         3.353 au  O             1.00      1 F:xyz           4
                        (      91.230 eV)
   101     101       --         3.353 au  O             1.00      1 F:z2x           4
                        (      91.230 eV)
   102     102       --         3.353 au  O             1.00      1 F:z2y           4
                        (      91.230 eV)
   103     103       --         3.353 au  O             1.00      1 F:x             4
                        (      91.230 eV)
   104     104       --         3.353 au  O             1.00      1 F:y             4
                        (      91.230 eV)
   105     105      1.000      -0.238 au  H             1.00      1 S               5
                        (      -6.484 eV)
   106     106       --         0.077 au  H             1.00      2 S               5
                        (       2.096 eV)
   107     107       --         1.521 au  H             1.00      3 S               5
                        (      41.380 eV)
   108     108       --         0.410 au  H             1.00      1 P:x             5
                        (      11.162 eV)
   109     109       --         0.410 au  H             1.00      1 P:y             5
                        (      11.162 eV)
   110     110       --         0.410 au  H             1.00      1 P:z             5
                        (      11.162 eV)
   111     111       --         2.567 au  H             1.00      1 D:z2            5
                        (      69.838 eV)
   112     112       --         2.567 au  H             1.00      1 D:x2-y2         5
                        (      69.838 eV)
   113     113       --         2.567 au  H             1.00      1 D:xy            5
                        (      69.838 eV)
   114     114       --         2.567 au  H             1.00      1 D:xz            5
                        (      69.838 eV)
   115     115       --         2.567 au  H             1.00      1 D:yz            5
                        (      69.838 eV)
   116     116      1.000      -0.238 au  H             1.00      1 S               6
                        (      -6.484 eV)
   117     117       --         0.077 au  H             1.00      2 S               6
                        (       2.096 eV)
   118     118       --         1.521 au  H             1.00      3 S               6
                        (      41.380 eV)
   119     119       --         0.410 au  H             1.00      1 P:x             6
                        (      11.162 eV)
   120     120       --         0.410 au  H             1.00      1 P:y             6
                        (      11.162 eV)
   121     121       --         0.410 au  H             1.00      1 P:z             6
                        (      11.162 eV)
   122     122       --         2.567 au  H             1.00      1 D:z2            6
                        (      69.838 eV)
   123     123       --         2.567 au  H             1.00      1 D:x2-y2         6
                        (      69.838 eV)
   124     124       --         2.567 au  H             1.00      1 D:xy            6
                        (      69.838 eV)
   125     125       --         2.567 au  H             1.00      1 D:xz            6
                        (      69.838 eV)
   126     126       --         2.567 au  H             1.00      1 D:yz            6
                        (      69.838 eV)
   127     127      1.000      -0.238 au  H             1.00      1 S               7
                        (      -6.484 eV)
   128     128       --         0.077 au  H             1.00      2 S               7
                        (       2.096 eV)
   129     129       --         1.521 au  H             1.00      3 S               7
                        (      41.380 eV)
   130     130       --         0.410 au  H             1.00      1 P:x             7
                        (      11.162 eV)
   131     131       --         0.410 au  H             1.00      1 P:y             7
                        (      11.162 eV)
   132     132       --         0.410 au  H             1.00      1 P:z             7
                        (      11.162 eV)
   133     133       --         2.567 au  H             1.00      1 D:z2            7
                        (      69.838 eV)
   134     134       --         2.567 au  H             1.00      1 D:x2-y2         7
                        (      69.838 eV)
   135     135       --         2.567 au  H             1.00      1 D:xy            7
                        (      69.838 eV)
   136     136       --         2.567 au  H             1.00      1 D:xz            7
                        (      69.838 eV)
   137     137       --         2.567 au  H             1.00      1 D:yz            7
                        (      69.838 eV)
   138     138      1.000      -0.238 au  H             1.00      1 S               8
                        (      -6.484 eV)
   139     139       --         0.077 au  H             1.00      2 S               8
                        (       2.096 eV)
   140     140       --         1.521 au  H             1.00      3 S               8
                        (      41.380 eV)
   141     141       --         0.410 au  H             1.00      1 P:x             8
                        (      11.162 eV)
   142     142       --         0.410 au  H             1.00      1 P:y             8
                        (      11.162 eV)
   143     143       --         0.410 au  H             1.00      1 P:z             8
                        (      11.162 eV)
   144     144       --         2.567 au  H             1.00      1 D:z2            8
                        (      69.838 eV)
   145     145       --         2.567 au  H             1.00      1 D:x2-y2         8
                        (      69.838 eV)
   146     146       --         2.567 au  H             1.00      1 D:xy            8
                        (      69.838 eV)
   147     147       --         2.567 au  H             1.00      1 D:xz            8
                        (      69.838 eV)
   148     148       --         2.567 au  H             1.00      1 D:yz            8
                        (      69.838 eV)



 ================================
 (Slater-type)  F U N C T I O N S  ***  (Basis and Fit)  ***
 ================================
  

 Atom Type    1  (C)
 ==============

 Valence Basis Sets:  10
 -----------------------
   1 S    7.680000
   1 S    5.000000
   2 S    1.280000
   2 S    2.100000
   2 S    4.600000
   2 P    0.820000
   2 P    1.480000
   2 P    2.940000
   3 D    2.200000
   4 F    3.300000

 Atom Type    2  (O)
 ==============

 Valence Basis Sets:  10
 -----------------------
   1 S    9.800000
   1 S    6.800000
   2 S    7.580000
   2 S    2.880000
   2 S    1.720000
   2 P    4.080000
   2 P    2.080000
   2 P    1.120000
   3 D    2.000000
   4 F    3.000000

 Atom Type    3  (H)
 ==============

 Valence Basis Sets:   5
 -----------------------
   1 S    0.690000
   1 S    0.920000
   1 S    1.580000
   2 P    1.250000
   3 D    2.500000


 BAS: List of all Elementary Cartesian Basis Functions
 =====================================================

 The numbering in the list below (to the right of the function characteristics) is referred
 to in print-outs of MO eigenvectors and Mulliken populations in the BAS representation
 (as contrasted to the SFO representation).

 Notes:
 1. The functions are characterized by a polynomial prefactor (powers of x,y,z and r) and
    an exponential decay factor alpha.
 2. Since the basis sets are specific for an atom TYPE, the individual functions occur on
    all atoms of that type.
 3. The word 'Core' in the left margin signals that it is a Core Function (CF) : not a
    degree of freedom in the valence set, but only used to ensure orthogonalization of
    the other valence basis functions on the frozen Core Orbitals.


 (power of) X  Y  Z  R     Alpha  on Atom
            ==========     =====     ==========

 C                                    1    2    3
                                  ---------------------------------------------------------------------------
            0  0  0  0     7.680      1   31   61
            0  0  0  0     5.000      2   32   62
            0  0  0  1     1.280      3   33   63
            0  0  0  1     2.100      4   34   64
            0  0  0  1     4.600      5   35   65
            1  0  0  0     0.820      6   36   66
            0  1  0  0     0.820      7   37   67
            0  0  1  0     0.820      8   38   68
            1  0  0  0     1.480      9   39   69
            0  1  0  0     1.480     10   40   70
            0  0  1  0     1.480     11   41   71
            1  0  0  0     2.940     12   42   72
            0  1  0  0     2.940     13   43   73
            0  0  1  0     2.940     14   44   74
            2  0  0  0     2.200     15   45   75
            1  1  0  0     2.200     16   46   76
            1  0  1  0     2.200     17   47   77
            0  2  0  0     2.200     18   48   78
            0  1  1  0     2.200     19   49   79
            0  0  2  0     2.200     20   50   80
            3  0  0  0     3.300     21   51   81
            2  1  0  0     3.300     22   52   82
            2  0  1  0     3.300     23   53   83
            1  2  0  0     3.300     24   54   84
            1  1  1  0     3.300     25   55   85
            1  0  2  0     3.300     26   56   86
            0  3  0  0     3.300     27   57   87
            0  2  1  0     3.300     28   58   88
            0  1  2  0     3.300     29   59   89
            0  0  3  0     3.300     30   60   90

 O                                    4
                                  ---------------------------------------------------------------------------
            0  0  0  0     9.800     91
            0  0  0  0     6.800     92
            0  0  0  1     7.580     93
            0  0  0  1     2.880     94
            0  0  0  1     1.720     95
            1  0  0  0     4.080     96
            0  1  0  0     4.080     97
            0  0  1  0     4.080     98
            1  0  0  0     2.080     99
            0  1  0  0     2.080    100
            0  0  1  0     2.080    101
            1  0  0  0     1.120    102
            0  1  0  0     1.120    103
            0  0  1  0     1.120    104
            2  0  0  0     2.000    105
            1  1  0  0     2.000    106
            1  0  1  0     2.000    107
            0  2  0  0     2.000    108
            0  1  1  0     2.000    109
            0  0  2  0     2.000    110
            3  0  0  0     3.000    111
            2  1  0  0     3.000    112
            2  0  1  0     3.000    113
            1  2  0  0     3.000    114
            1  1  1  0     3.000    115
            1  0  2  0     3.000    116
            0  3  0  0     3.000    117
            0  2  1  0     3.000    118
            0  1  2  0     3.000    119
            0  0  3  0     3.000    120

 H                                    5    6    7    8
                                  ---------------------------------------------------------------------------
            0  0  0  0     0.690    121  133  145  157
            0  0  0  0     0.920    122  134  146  158
            0  0  0  0     1.580    123  135  147  159
            1  0  0  0     1.250    124  136  148  160
            0  1  0  0     1.250    125  137  149  161
            0  0  1  0     1.250    126  138  150  162
            2  0  0  0     2.500    127  139  151  163
            1  1  0  0     2.500    128  140  152  164
            1  0  1  0     2.500    129  141  153  165
            0  2  0  0     2.500    130  142  154  166
            0  1  1  0     2.500    131  143  155  167
            0  0  2  0     2.500    132  144  156  168

 Total number of charge fitting functions (nprimf)       536
 Total number of Cartesian basis functions (naos)        168
 Total number of Cartesian core functions  (ncos)          0

1
 ***************************************************************************************************



                                              ***********************
                                              *  T E C H N I C A L  *
                                              ***********************
  



 =============================================================
 P A R A L L E L I Z A T I O N  and  V E C T O R I Z A T I O N
 =============================================================
  
 Nr of parallel processes:                                4
 Maximum vector length in NumInt loops:                 128



 =====================
 S C F   U P D A T E S
 =====================
  
 Max. nr. of cycles:                               300
 Convergence criterion:                              0.0000010000
   secondary criterion:                              0.0010000000

 Mix parameter (when DIIS does not apply):           0.2000000000
 Mixed ADIIS+SDIIS will be used                  
    Max number of expansion vectors:                10
    Pure ADIIS when Max([F,P]) is above              0.1000000000
    Pure SDIIS when Max([F,P]) is below              0.0010000000
 Automatic ElectronSmearing (in case of problematic SCF convergence) disabled



 =================
 P R E C I S I O N  ***  (General: NumInt, NeglectFunctionTails, ...)  ***
 =================
  

 NumInt:           Target precision:                 4.0000000000
 -------           Initial precision:                4.0000000000
                   Min. precision (optimization):    4.0000000000

 Neglect Functions:          Basis functions:        0.1000000000E-05
 ------------------          Fit functions:          0.1000000000E-05



 ===========================
 L I N E A R   S C A L I N G
 ===========================
  

 Cut-off radii density fit:                        0.1000000000E-07
 Overlap cut-off criterion AO matrix elements:     0.1000000000E-05
 Cut-offs for Coulomb potential and fitted density:0.1000000000E-07
 Cut-off criterion for Coulomb multipole terms:    0.1000000000E-07
 Progressive Convergence parameter:                 0.000000000    

 Number of elements of the density matrix on this node (used, total):      3774     14196



 ===========================================
 Numerical Integration : Fuzzy Cells (Becke)
 ===========================================
  
 Becke grid quality: NORMAL         
  
 Lebedev angular grid order:             min:  11 max:  23
 Nr. of radial points:                   min:  46 max:  52

 Total nr. of points:      51648
 Nr. of blocks:              404
 Block length:               128
 Nr. of dummy points:         64


 Test of Precision of the Numerical Integration Grid
 ===================================================

 Integral of the Total Core Density:                   0.00000000000000



 ========================
 Density Fitting (zlmFit)
 ========================
  
 ZlmFit Fit Quality: NORMAL         
  
 Max L-expansion:                        min:   6 max:   7
 Nr. of radial interpolation points:     min:  39 max:  54



 =====
 S C F  ***  ScaSCF  ***
 =====
  
 Initial density matrix is taken from previous geometry

 CYCLE    1
  ***********************************************************
  ** : orbital data taken from :Z:/SCMTMP/amstmp_ams_kid0.519749203/GOStep6.rkf
  ***********************************************************
 SCF Error: norm([F,P])=      0.000000076562, max([F,P])=      0.000000016924
 orbitals (Q,E):
 ---------------
 A :6...25           ( 2.00    -0.7418)  ( 2.00    -0.5971)  ( 2.00    -0.5219)  ( 2.00    -0.4319)
                     ( 2.00    -0.4305)  ( 2.00    -0.3758)  ( 2.00    -0.3635)  ( 2.00    -0.3522)
                     ( 2.00    -0.2717)  ( 2.00    -0.2194)  ( 0.00    -0.1074)  ( 0.00    -0.0109)
                     ( 0.00    -0.0031)  ( 0.00    -0.0007)  ( 0.00     0.0282)  ( 0.00     0.0594)
                     ( 0.00     0.1086)  ( 0.00     0.1294)  ( 0.00     0.1516)  ( 0.00     0.1921)

 CYCLE    2
  SDIIS (wt  0.000):  0.6512  0.3488
 A-DIIS (wt  1.000):  0.0000  1.0000
  DIIS coefficients:  0.0000  1.0000
 SCF Error: norm([F,P])=      0.000000134623, max([F,P])=      0.000000035380
 orbitals (Q,E):
 ---------------
 A :6...16           ( 2.00    -0.7418)  ( 2.00    -0.5971)  ( 2.00    -0.5219)  ( 2.00    -0.4319)
                     ( 2.00    -0.4305)  ( 2.00    -0.3758)  ( 2.00    -0.3635)  ( 2.00    -0.3522)
                     ( 2.00    -0.2717)  ( 2.00    -0.2194)  ( 0.00    -0.1074)

 SCF CONVERGED

 CYCLE    3
1
 ***************************************************************************************************



                                                *******************
                                                *  R E S U L T S  *
                                                *******************
  
 *** Using FIT density in Focky
  SDIIS (wt  0.000):  1.0855 -0.0855
 A-DIIS (wt  1.000):  0.0000  1.0000
  DIIS coefficients:  0.0000  1.0000
 SCF Error: norm([F,P])=      0.000000393249, max([F,P])=      0.000000111330

 Scaled ZORA Orbital Energies, per Irrep and Spin:
 =================================================
                        Occup              E (au)              E (eV)       Diff (eV) with prev. cycle
                        -----      --------------------        ------       --------------------------
 A
               6        2.000     -0.74175683321176E+00       -20.184               2.17E-06
               7        2.000     -0.59705051077531E+00       -16.247               1.47E-06
               8        2.000     -0.52185504546537E+00       -14.200               1.05E-06
               9        2.000     -0.43186600647580E+00       -11.752               1.08E-06
              10        2.000     -0.43049446932035E+00       -11.714               4.82E-07
              11        2.000     -0.37584342346714E+00       -10.227              -1.44E-06
              12        2.000     -0.36352584753396E+00        -9.892              -1.21E-06
              13        2.000     -0.35221713618472E+00        -9.584               1.14E-06
              14        2.000     -0.27170233809332E+00        -7.393               9.51E-07
              15        2.000     -0.21935895849565E+00        -5.969              -2.48E-06
              16        0.000     -0.10742438638579E+00        -2.923
              17        0.000     -0.10942265985489E-01        -0.298
              18        0.000     -0.31497653382193E-02        -0.086
              19        0.000     -0.71437910556798E-03        -0.019
              20        0.000      0.28164745374086E-01         0.766
              21        0.000      0.59408224619843E-01         1.617
              22        0.000      0.10861651299066E+00         2.956
              23        0.000      0.12936877176556E+00         3.520
              24        0.000      0.15157425848118E+00         4.125
              25        0.000      0.19210167731907E+00         5.227
  
 HOMO :       15 A                -0.21935895849565E+00
 LUMO :       16 A                -0.10742438638579E+00
  


 All Electron Calculation, thus no Orbital Energies of the Core Orbitals are calculated


 Fit test: (difference of exact and fit density, squared integrated, result summed over spins)
         Sum-of-Fragments:                             0.00000000043410
         Orthogonalized Fragments:                     0.00004840155145
         SCF:                                          0.00012743658333



 ==========================
 Electron Density at Nuclei
 ==========================
  
 The electron density is calculated at points on a small sphere around the center of a nucleus.
 The printed electron density is the average electron density on these points.
 The radius of the sphere is the printed approximate finite nuclear radius.
 Note: ZORA-4 density is used, which includes small component density

         Atom        Nuclear Radius (Angstrom)             Electron Density (a.u.)
         ----        -------------------------             -----------------------
     1)   C                 0.0000320678                              126.83895
     2)   C                 0.0000320678                              126.84031
     3)   C                 0.0000320678                              126.90144
     4)   O                 0.0000345546                              313.41769
     5)   H                 0.0000181514                                0.50260
     6)   H                 0.0000181514                                0.50364
     7)   H                 0.0000181514                                0.50395
     8)   H                 0.0000181514                                0.50301



 =======================================
 M U L L I K E N   P O P U L A T I O N S
 =======================================
  
 The survey below gives for each atom:
 a) the total charge (Z minus electrons)
 b) the net spin polarization (nr of electrons spin-A minus spin-B)
 c) for each spin the atomic electron valence density (integrated) per L-value.

 Atom              Charge    Spin density          S         P         D         F
 ----              ------    ------------       ------    ------    ------    ------
 1 C               0.4640                       3.0603    2.4321    0.0403    0.0033
 2 C               0.1923                       3.1174    2.6309    0.0550    0.0045
 3 C               0.6402                       2.9848    2.2544    0.1132    0.0074
 4 O              -0.4830                       3.8432    4.5777    0.0560    0.0061
 5 H              -0.2525                       1.1845    0.0632    0.0048    0.0000
 6 H              -0.1938                       1.1106    0.0779    0.0053    0.0000
 7 H              -0.1595                       1.0891    0.0655    0.0049    0.0000
 8 H              -0.2076                       1.1268    0.0756    0.0052    0.0000

 Populations of individual BAS functions
 ----------------------------------------
 1 C            0.4705  1.5525  0.1983  0.9240 -0.0850 -0.0844 -0.3259 -0.0347  0.7517  0.8934
                0.7227  0.1686  0.1873  0.1535  0.0061  0.0083  0.0073  0.0136  0.0065 -0.0015
                0.0006  0.0004  0.0014  0.0008  0.0006 -0.0003  0.0013  0.0012 -0.0009 -0.0019
 2 C            0.4702  1.5525  0.2763  0.9009 -0.0826 -0.0902 -0.1105 -0.0290  0.7915  0.7974
                0.7669  0.1680  0.1818  0.1550  0.0056  0.0123  0.0080  0.0212  0.0098 -0.0020
               -0.0005 -0.0014  0.0010  0.0029  0.0006 -0.0008  0.0048  0.0032 -0.0025 -0.0029
 3 C            0.4699  1.5540  0.1228  0.9259 -0.0877 -0.0828 -0.1875 -0.0872  0.6627  0.7791
                0.6659  0.1659  0.1889  0.1495  0.0133  0.0248  0.0185  0.0347  0.0188  0.0031
               -0.0005 -0.0002  0.0017  0.0035  0.0011 -0.0003  0.0036  0.0034 -0.0017 -0.0031
 4 O            0.5965  1.4213 -0.0513  1.0515  0.8253  0.2479  0.3018  0.2457  0.8476  0.9651
                0.8387  0.3301  0.4420  0.3588  0.0149  0.0116  0.0105  0.0024  0.0096  0.0070
                0.0043  0.0044  0.0032 -0.0011  0.0009 -0.0011 -0.0033 -0.0004  0.0008 -0.0016
 5 H            0.3411  0.5301  0.3133  0.0244  0.0159  0.0230  0.0027  0.0010  0.0009 -0.0029
                0.0008  0.0024
 6 H            0.2577  0.5245  0.3283  0.0247  0.0280  0.0252  0.0024  0.0009  0.0008 -0.0014
                0.0009  0.0018
 7 H            0.2096  0.5487  0.3308  0.0233  0.0191  0.0232  0.0022  0.0009  0.0008 -0.0018
                0.0008  0.0019
 8 H            0.2817  0.5222  0.3229  0.0206  0.0340  0.0209 -0.0051  0.0019  0.0001  0.0115
                0.0019 -0.0050

 Gross Charges per Atom (Z minus electrons)
 ==========================================
             0.4640    0.1923    0.6402   -0.4830   -0.2525   -0.1938   -0.1595   -0.2076
 Net Total:  0.00000000


 Atom-Atom Population Matrix (off-diagonal elements not doubled)
 ===============================================================

     1 :     4.2941
     2 :     0.5855    4.7220
     3 :    -0.0135    0.4161    4.1080
     4 :    -0.0015   -0.0386    0.5643    8.0286
     5 :    -0.0141   -0.1952    0.3798   -0.0736    1.1989
     6 :     0.3865   -0.0543   -0.0312    0.0021   -0.0281    1.0541
     7 :    -0.0748    0.4135   -0.0693    0.0036   -0.0054    0.0135    0.9426
     8 :     0.3738   -0.0412    0.0056   -0.0021   -0.0098   -0.1488   -0.0643    1.0945



 =================================================
 H I R S H F E L D   C H A R G E   A N A L Y S I S
 =================================================
  
 For each fragment: the (numerical) integral of rho(scf) * rho(fragment)/rho(sum-of-fragments)
 (nuclear charges are included, electrons are counted negative)

 The fragments and their ordering are defined in the early G E O M E T R Y output section.
 If you use single-atom fragments, this usually implies that all atoms of the same
 chemical type are grouped together. This may not be the order in which you listed them
 in the input file!

    1  C                        -0.0483
    2  C                        -0.0425
    3  C                         0.1060
    4  O                        -0.2227
    5  H                         0.0360
    6  H                         0.0544
    7  H                         0.0576
    8  H                         0.0596

 Sum of these charges (accuracy NumInt/Tails) =           0.00003635



 =============================
 V O R O N O I   C H A R G E S
 =============================
  
 For each atom: the (numerical) integral of the total electronic charge density in its Voronoi cell,
 i.e. the region of space that is closer to that atom than to any other atom.
 (cf. Wigner-Seitz cells in crystals)

 Within the Voronoi cell the subintegrals over the atomic sphere and the remaining part are evaluated
 separately to give the numbers of electrons (negative charge) in these regions.
 The net total charge in the cell (including the nuclear charge) is also given.

 Values are provided for
    a) the Initial (sum-of-fragments) density
    b) the Orthogonalized-Fragments density
    c) the SCF density
    d) the Voronoi Deformation Density (VDD): the difference SCF-Initial for the complete atomic cell


  Atom                Initial                    OrthFrag                   SCF
             Sphere RestCell NetTotal   Sphere RestCell NetTotal   Sphere RestCell NetTotal      VDD
 -----       ------------------------   ------------------------   ------------------------    -----
    1 C      -2.263   -2.703    1.035   -2.422   -2.796    0.782   -2.296   -2.717    0.986   -0.048
    2 C      -2.264   -3.159    0.577   -2.442   -3.134    0.424   -2.299   -3.197    0.504   -0.073
    3 C      -2.266   -3.096    0.638   -2.412   -3.058    0.530   -2.289   -2.955    0.756    0.118
    4 O      -3.303   -4.836   -0.139   -3.522   -4.612   -0.135   -3.330   -5.044   -0.374   -0.235
    5 H      -0.075   -1.440   -0.515   -0.097   -1.296   -0.393   -0.109   -1.358   -0.467    0.047
    6 H      -0.076   -1.446   -0.522   -0.099   -1.294   -0.393   -0.109   -1.358   -0.467    0.054
    7 H      -0.076   -1.478   -0.554   -0.098   -1.320   -0.418   -0.109   -1.370   -0.479    0.074
    8 H      -0.076   -1.444   -0.520   -0.098   -1.300   -0.398   -0.109   -1.350   -0.459    0.062
 ---------------------------------------------------------------------------------------------------
 Total NetCharge:               0.000                      0.000                      0.000    0.000
 (accuracy NumInt/Tails)

 Remark: the 'NetTotal' Voronoi charges often do not match the Mulliken and/or Hirshfeld charges very
 well. This is caused by the fact that chemically different atoms are not treated in accordance with
 their relative sizes. (Voronoi cells are defined by boundary planes halfway between the atoms.)
 However, the CHANGES in charge, comparing 'Initial' to 'SCF' for instance, do give a fair indication
 of the flow of charge caused by the relaxation from sum-of-fragments to self-consistency.

 Warning: the absolute accuracy of the VDD charges obtained using the Fuzzy Cells (Becke) integration
 scheme is much poorer than the one obtained with an 'equivalent' Voronoi integration grid. 



 =================================================================
 M U L T I P O L E   D E R I V E D   C H A R G E   A N A L Y S I S
 =================================================================

 This charge analysis uses the atomic multipoles (obtained from the fitted density) up to some level X,
 and reconstructs these multipoles exactly (up to level X) by distributing charges over all atoms.
 This is achieved by using Lagrange multipliers and a weight function to keep the multipoles local.

 Dummy atoms can be included (by setting INCDUM in MDC-block to 1) to obtain a fractional charge.
 This is generally useful and necessary only for small symmetrical molecules, when there are not
 enough degrees of freedom to reconstruct the multipoles.

 Since the atomic multipoles are reconstructed up to level X,
 the molecular multipoles are represented also up to level X.
 The recommended level is to reconstruct up to quadrupole : -> MDC-q charges.

 See: M. Swart, P.Th. van Duijnen, J.G. Snijders, J.Comput.Chem., (2001), p. 79-88.

 ------------------------------------------------------------- 
 Atomic electronic multipole moments from SCF equations (a.u.)
 ------------------------------------------------------------- 

   atom        charge        dip-x     dip-y     dip-z      quad-xx   quad-xy   quad-xz   quad-yy   quad-yz   quad-zz
 --------------------------------------------------------------------------------------------------------------------
    1 C      0.159997    -0.063964 -0.049046 -0.045300    -0.089517  0.086236  0.418091  0.400990 -0.062158 -0.311473
    2 C      0.079180     0.065755 -0.000936  0.055538    -0.074514  0.097337  0.439472  0.380504 -0.055971 -0.305991
    3 C      0.297596     0.001660  0.064874 -0.009595    -0.032361  0.041306  0.193302  0.167173 -0.026435 -0.134812
    4 O     -0.334659    -0.219085 -0.168228 -0.157467     0.184685  0.270204  0.125797 -0.168245  0.234673 -0.016440
    5 H     -0.062806     0.009965  0.015378  0.006019     0.003674 -0.027988  0.075036  0.012272 -0.038574 -0.015947
    6 H     -0.051412    -0.016720  0.006619 -0.014767     0.015145 -0.041717  0.107874  0.000850 -0.052875 -0.015994
    7 H     -0.042105     0.021971 -0.006606  0.019876     0.003177 -0.046770  0.104154  0.016163 -0.059783 -0.019340
    8 H     -0.045792    -0.001987 -0.028490  0.002848    -0.096521  0.019727  0.035095  0.210642 -0.023765 -0.114121

 --------------------------------------- 
 Multipole derived atomic charges (a.u.)
 --------------------------------------- 

 The MDC-m charges are just the Monopole terms in the multipole expansion, while for the MDC-d charges
 also the Dipoles are reconstructed. The usually preferred charges are the MDC-q charges.
 These reconstruct the Monopoles, Dipoles and Quadrupoles (both atomic AND molecular).

        Atom    Level:     MDC-m        MDC-d        MDC-q
 ---------------------------------------------------------
     1     C            0.159997    -0.034821   -27.816543
     2     C            0.079180     0.062896    26.781573
     3     C            0.297596     0.338949    -7.526436
     4     O           -0.334659    -0.417513     0.331180
     5     H           -0.062806    -0.036058     1.074464
     6     H           -0.051412     0.055526     7.034562
     7     H           -0.042105     0.015200    -7.725682
     8     H           -0.045792     0.015821     7.846882

 ------------------------------------------------ 
 Average absolute deviations in atomic multipoles
 ------------------------------------------------ 

 Stated here are the average differences between the atomic multipoles
 and the reconstructed atomic multipoles (from the distributed charges).
 If these values are not zero, this means there are not enough degrees of freedom,
 to be able to reconstruct the atomic multipoles. (This usually happens only
 for small and/or highly symmetric molecules). If this is the case, one could add
 dummy atoms as extra point charges (and setting INCDUM in MDC-block to 1).

 Level:                                 MDC-d        MDC-q
 ---------------------------------------------------------
 Charge   (a.u.)                       0.0000       0.0000
 Dipole   (Debye)                      0.0000       0.0102
 Quad.    (a.u.)                       0.1349       0.0012

 --------------------------------------- 
 Represented molecular multipole moments
 --------------------------------------- 

 Given here are the Molecular multipole moments from the atomic charges, and from the Fit Density.
 Note that the atomic charges represent the latter, NOT the ones from the Exact density.

            Q (a.u.)             Dipole moment (Debye)                                          Quadrupole moment (a.u.)
                                 x         y         z              xx        xy        xz        yy        yz        zz
------------------------------------------------------------------------------------------------------------------------
MDC-m         0.0000       -1.4102   -1.9118   -0.8777          3.5472    3.1922    0.9639   -2.3321    0.1177   -1.2152
MDC-d         0.0000       -1.9247   -2.3349   -1.2408          5.0478    3.7603    2.7033   -3.2223   -0.1498   -1.8255
MDC-q         0.0000       -2.0248   -2.3158   -1.1220          4.8533    3.6189    2.0785   -1.9069   -0.6059   -2.9464
 
Fit.Dens.     0.0000       -1.9247   -2.3349   -1.2408          4.4841    3.7492    3.0828   -1.7461   -0.5044   -2.7381



 =============
 Dipole Moment  ***  (Debye)  ***
 =============
  
 Vector   :        -1.93216116     -2.34412340     -1.24531485
 Magnitude:         3.28313422

 This molecular dipole moment is calculated with analytic integration



 =========================================
 Quadrupole Moment (Buckingham convention)  ***  (a.u.)  ***
 =========================================
  
      quad-xx        quad-xy        quad-xz        quad-yy        quad-yz        quad-zz
      4.50055628     3.97190180     3.85282184    -1.74627258    -0.54517526    -2.75428371

 This molecular quadrupole moment is calculated with analytic integration
1



 ===========================
 B O N D I N G   E N E R G Y  ***  (decomposition)  ***
 ===========================
  
*** IMPORTANT NOTE ***

The bond energy is computed as an energy difference between molecule and
fragments. In particular when the fragments are single atoms, they are usually
computed as SPHERICALLY SYMMETRIC and SPIN-RESTRICTED. Obviously, this usually
does NOT represent the true atomic groundstate.

To obtain the 'real' bond energy, (atomic) correction terms must be applied
for the true (multiplet) fragment ground state. See ref: E.J.Baerends,
V.Branchadell, M.Sodupe, Chem.Phys.Lett.265 (1997) 481

General theoretical background on the bond energy decomposition scheme used
here (Morokuma-Ziegler) can be found in the review paper:
F.M. Bickelhaupt and E.J. Baerends,
"Kohn-Sham Density Functional Theory: Predicting and Understanding Chemistry"
In: Rev. Comput. Chem.; Lipkowitz, K. B. and Boyd, D. B., Eds.;
Wiley-VCH: New York, 2000, Vol. 15, 1-86.

Symbols used in the Bickelhaupt-Baerends (BB) paper are given below to make
the direct connection to that paper, where detailed explanations can be found
on the meaning of the various terms.


                                                   hartree              eV         kcal/mol           kJ/mol
                                      --------------------     -----------       ----------      -----------

Pauli Repulsion
  Kinetic (Delta T^0):                  16.154749948474077        439.5931         10137.26         42414.29
  Delta V^Pauli Coulomb:                -7.655489354972810       -208.3165         -4803.89        -20099.48
  Delta V^Pauli LDA-XC:                 -1.907504374978674        -51.9058         -1196.98         -5008.15
  Delta V^Pauli GGA-Exchange:            0.150649217907628          4.0994            94.53           395.53
  Delta V^Pauli GGA-Correlation:        -0.137633853068674         -3.7452           -86.37          -361.36
                                      --------------------     -----------       ----------      -----------
  Total Pauli Repulsion:                 6.604771583361547        179.7250          4144.56         17340.83
 (Total Pauli Repulsion =
  Delta E^Pauli in BB paper)

Steric Interaction
  Pauli Repulsion (Delta E^Pauli):       6.604771583361547        179.7250          4144.56         17340.83
  Electrostatic Interaction:            -1.228953543450532        -33.4415          -771.18         -3226.62
 (Electrostatic Interaction =
  Delta V_elstat in the BB paper)
                                      --------------------     -----------       ----------      -----------
  Total Steric Interaction:              5.375818039911016        146.2835          3373.38         14114.21
 (Total Steric Interaction =
  Delta E^0 in the BB paper)

Orbital Interactions
  A:                                    -7.063104172462666       -192.1968         -4432.17        -18544.18
                                      --------------------     -----------       ----------      -----------
  Total Orbital Interactions:           -7.063104172462666       -192.1968         -4432.17        -18544.18

Alternative Decomposition Orb.Int.
  Kinetic:                             -14.552386399465098       -395.9906         -9131.76        -38207.29
  Coulomb:                               7.087486147995503        192.8603          4447.47         18608.19
  XC:                                    0.401796079006926         10.9334           252.13          1054.92
                                      --------------------     -----------       ----------      -----------
  Total Orbital Interactions:           -7.063104172462668       -192.1968         -4432.17        -18544.18

  Residu (E=Steric+OrbInt+Res):         -0.000096752346871         -0.0026            -0.06            -0.25

Total Bonding Energy:                   -1.687382884898521        -45.9160         -1058.85         -4430.22


Summary of Bonding Energy (energy terms are taken from the energy decomposition above)
======================================================================================

  Electrostatic Energy:                 -1.228953543450532        -33.4415          -771.18         -3226.62
  Kinetic Energy:                        1.602363549008979         43.6025          1005.50          4207.00
  Coulomb (Steric+OrbInt) Energy:       -0.568099959324178        -15.4588          -356.49         -1491.55
  XC Energy:                            -1.492692931132793        -40.6182          -936.68         -3919.06
                                      --------------------     -----------       ----------      -----------
  Total Bonding Energy:                 -1.687382884898524        -45.9160         -1058.85         -4430.22


Correction terms (incorporated in energies above; only for test purposes):

1. Indication of fit-quality: 1st-order fit-correction used in the energy (hartree):   0.0004872956
2. Electrostatic (Fit correction):   0.0000000000

Scaled ZORA energy correction, not included in bonding energy (hartree):           -0.0000441449
 NOTE: This scaled ZORA energy correction should only be used to compare two calculations
 in which the only difference in the calculation is the electron configuration.
 Then the difference in energy of this term should be added to the difference in energy of
 the two electron configurations.
 This term should not be used otherwise.
 In practice it is useful only for core excitation energy calculations.



 =========================================
 F R A G M E N T   E N E R G Y   T E R M S  ***  (summed over all fragments)  ***
 =========================================
  

The energy terms below are (parts of) the Total Energy of the fragments from which the molecule
 is built.

Exchange and Correlation
  Exchange LDA:                        -21.203355656648974       -576.9727        -13305.31        -55669.40
  Exchange GGA:                         -2.702209000141229        -73.5308         -1695.66         -7094.65
  Correlation LDA:                       0.000000000000000          0.0000             0.00             0.00
  Correlation GGA:                      -0.854785372603976        -23.2599          -536.39         -2244.24
                                      --------------------     -----------       ----------      -----------
  Total XC:                            -24.760350029394179       -673.7634        -15537.36        -65008.29
1



 =======================================================
 S F O   P O P U L A T I O N S ,   M O   A N A L Y S I S
 =======================================================
  
[...]
                                    1.89%     1 P:z            -8.949  1.33     4 O
                                    1.84%     1 P:y            -5.135  0.67     3 C
                                   -1.16%     2 P:x             4.559  0.00     2 C
                                   -1.14%     2 P:z             4.559  0.00     2 C
     -11.752  2.00     9 A         16.63%     1 P:y            -5.135  0.67     2 C
                                   16.61%     1 S              -6.484  1.00     6 H
                                   12.85%     1 P:y            -5.135  0.67     3 C
                                   12.29%     1 S              -6.484  1.00     5 H
                                    7.37%     1 P:x            -5.135  0.67     1 C
                                    6.38%     1 P:z            -5.135  0.67     1 C
                                    5.79%     1 P:y            -8.949  1.33     4 O
                                    3.40%     1 P:z            -8.949  1.33     4 O
                                    3.28%     1 P:z            -5.135  0.67     3 C
                                    2.88%     1 P:x            -8.949  1.33     4 O
                                    2.04%     1 P:x            -5.135  0.67     3 C
                                    2.02%     1 P:y            -5.135  0.67     1 C
                                    1.95%     2 P:y             4.559  0.00     3 C
     -11.714  2.00    10 A         21.37%     1 P:y            -5.135  0.67     1 C
                                   21.18%     1 S              -6.484  1.00     8 H
                                    9.09%     1 P:x            -5.135  0.67     2 C
                                    8.15%     1 P:y            -8.949  1.33     4 O
                                    7.41%     2 S             -24.136  2.00     4 O
                                    6.58%     1 P:z            -5.135  0.67     2 C
                                    5.93%     1 P:x            -8.949  1.33     4 O
                                    4.27%     1 S              -6.484  1.00     7 H
                                    2.95%     1 P:x            -5.135  0.67     1 C
                                    2.51%     1 P:z            -8.949  1.33     4 O
                                    1.96%     2 S             -13.802  2.00     3 C
                                    1.29%     1 P:x            -5.135  0.67     3 C
                                    1.12%     2 P:x             4.559  0.00     2 C
                                    1.01%     2 P:y             4.559  0.00     1 C
     -10.227  2.00    11 A         18.08%     1 P:x            -8.949  1.33     4 O
                                   14.90%     1 P:y            -8.949  1.33     4 O
                                    8.77%     1 P:z            -8.949  1.33     4 O
                                    8.69%     2 S             -24.136  2.00     4 O
                                    6.89%     1 S              -6.484  1.00     5 H
                                    6.57%     1 S              -6.484  1.00     8 H
                                    5.32%     1 P:y            -5.135  0.67     1 C
                                    4.73%     1 P:x            -5.135  0.67     3 C
                                    3.34%     1 P:x            -5.135  0.67     2 C
                                    3.02%     2 P:x             4.559  0.00     3 C
                                    2.98%     1 S              -6.484  1.00     7 H
                                    2.77%     1 P:z            -5.135  0.67     3 C
                                    1.94%     1 P:z            -5.135  0.67     2 C
                                    1.94%     1 P:x            -5.135  0.67     1 C
                                    1.69%     2 P:z             4.559  0.00     3 C
                                    1.59%     2 P:y             4.559  0.00     1 C
                                    1.05%     2 P:y             4.559  0.00     3 C
      -9.892  2.00    12 A         27.51%     1 P:z            -8.949  1.33     4 O
                                   20.57%     1 P:z            -5.135  0.67     3 C
                                   19.95%     1 P:x            -8.949  1.33     4 O
                                   14.83%     1 P:x            -5.135  0.67     3 C
                                    6.73%     1 P:z            -5.135  0.67     2 C
                                    4.71%     1 P:x            -5.135  0.67     2 C
                                    1.76%     1 P:z            -5.135  0.67     1 C
                                    1.32%     1 P:x            -5.135  0.67     1 C
      -9.584  2.00    13 A         21.11%     1 S              -6.484  1.00     7 H
                                   19.86%     1 S              -6.484  1.00     6 H
                                   11.55%     1 S              -6.484  1.00     8 H
                                    5.91%     1 P:y            -5.135  0.67     3 C
                                    5.30%     1 P:y            -5.135  0.67     1 C
                                    4.39%     1 P:z            -5.135  0.67     1 C
                                    4.14%     1 P:x            -5.135  0.67     2 C
                                    4.12%     1 P:x            -5.135  0.67     1 C
                                    4.08%     1 P:z            -5.135  0.67     2 C
                                    3.35%     1 P:y            -5.135  0.67     2 C
                                    2.36%     1 P:y            -8.949  1.33     4 O
                                    2.05%     1 P:z            -8.949  1.33     4 O
                                    1.70%     1 S              -6.484  1.00     5 H
                                    1.62%     1 P:x            -8.949  1.33     4 O
                                    1.48%     2 P:y             4.559  0.00     2 C
                                    1.43%     2 P:y             4.559  0.00     3 C
                                    1.21%     2 P:z             4.559  0.00     2 C
                                    1.11%     2 P:x             4.559  0.00     2 C
      -7.393  2.00    14 A         23.62%     1 P:z            -5.135  0.67     1 C
                                   20.92%     1 P:z            -5.135  0.67     2 C
                                   16.80%     1 P:x            -5.135  0.67     1 C
                                   15.16%     1 P:x            -5.135  0.67     2 C
                                   10.46%     1 P:z            -8.949  1.33     4 O
                                    7.55%     1 P:x            -8.949  1.33     4 O
      -5.969  2.00    15 A         49.56%     1 P:y            -8.949  1.33     4 O
                                   13.82%     1 P:z            -8.949  1.33     4 O
                                   13.71%     1 S              -6.484  1.00     5 H
                                    9.00%     1 P:x            -8.949  1.33     4 O
                                    6.06%     1 P:y            -5.135  0.67     2 C
                                    1.87%     2 S             -13.802  2.00     2 C
                                    1.31%     1 D:x2-y2        33.605  0.00     3 C
      -2.923  0.00    16 A         20.75%     1 P:z            -5.135  0.67     1 C
                                   15.22%     1 P:z            -5.135  0.67     3 C
                                   14.84%     1 P:x            -5.135  0.67     1 C
                                   13.22%     1 P:z            -8.949  1.33     4 O
                                   10.93%     1 P:x            -5.135  0.67     3 C
                                    9.49%     1 P:x            -8.949  1.33     4 O
                                    6.88%     1 P:z            -5.135  0.67     2 C
                                    4.96%     1 P:x            -5.135  0.67     2 C
                                   -1.13%     2 P:z             9.557  0.00     4 O
      -0.298  0.00    17 A         46.62%     2 S               2.096  0.00     8 H
                                   30.89%     2 S               2.096  0.00     6 H
                                   26.25%     1 S              -6.484  1.00     8 H
                                   13.37%     1 S              -6.484  1.00     6 H
                                   -9.51%     3 S              10.456  0.00     1 C
                                   -3.25%     2 P:y             4.559  0.00     1 C
                                    2.39%     2 S               2.096  0.00     5 H
                                   -2.28%     2 P:x             4.559  0.00     1 C
                                   -1.94%     2 P:y             4.559  0.00     2 C
                                   -1.87%     3 S              10.456  0.00     3 C
                                   -1.84%     2 P:x             4.559  0.00     2 C
                                   -1.77%     1 S              -6.484  1.00     7 H
                                    1.75%     2 P:x             4.559  0.00     3 C
                                    1.66%     2 S             -13.802  2.00     1 C
                                    1.59%     2 S               2.096  0.00     7 H
                                   -1.48%     1 S              -6.484  1.00     5 H
                                   -1.45%     3 S              41.380  0.00     8 H
                                    1.42%     2 P:z             4.559  0.00     3 C
                                   -1.28%     3 S              10.456  0.00     2 C
                                    1.21%     1 P:y            11.162  0.00     8 H
      -0.086  0.00    18 A         23.31%     1 P:z            -5.135  0.67     2 C
                                   21.75%     1 P:z            -5.135  0.67     3 C
                                   17.27%     1 P:x            -5.135  0.67     2 C
                                   15.35%     1 P:x            -5.135  0.67     3 C
                                    9.85%     1 P:z            -5.135  0.67     1 C
                                    6.74%     1 P:x            -5.135  0.67     1 C
                                    6.25%     1 P:z            -8.949  1.33     4 O
                                   -6.13%     2 P:z             4.559  0.00     2 C
                                   -5.09%     2 P:x             4.559  0.00     2 C
                                    4.43%     1 P:x            -8.949  1.33     4 O
                                   -2.08%     2 P:z             4.559  0.00     3 C
                                    1.63%     1 P:z            11.162  0.00     5 H
                                   -1.35%     2 P:z             9.557  0.00     4 O
                                    1.31%     1 P:z            11.162  0.00     7 H
                                    1.23%     1 P:x            11.162  0.00     5 H
                                   -1.16%     2 P:x             4.559  0.00     3 C
                                   -1.00%     2 P:x             9.557  0.00     4 O
      -0.019  0.00    19 A         34.02%     1 S              -6.484  1.00     7 H
                                   26.37%     2 S               2.096  0.00     7 H
                                   22.23%     2 S               2.096  0.00     5 H
                                   20.82%     1 S              -6.484  1.00     5 H
                                   14.87%     1 S              -6.484  1.00     6 H
                                   14.86%     2 S               2.096  0.00     6 H
                                  -10.73%     2 P:y             4.559  0.00     1 C
                                   10.35%     2 S               2.096  0.00     8 H
                                    9.13%     1 S              -6.484  1.00     8 H
                                   -7.68%     2 P:y             4.559  0.00     2 C
                                   -7.51%     2 P:y             4.559  0.00     3 C
                                   -7.25%     2 P:z             4.559  0.00     2 C
                                   -6.02%     2 P:x             4.559  0.00     2 C
                                   -4.08%     2 P:z             4.559  0.00     1 C
                                   -3.53%     2 P:x             4.559  0.00     1 C
                                   -3.40%     2 P:z             4.559  0.00     3 C
                                   -2.98%     2 P:x             4.559  0.00     3 C
                                   -1.67%     3 S              10.456  0.00     2 C
                                   -1.54%     1 P:y            -5.135  0.67     2 C
                                    1.29%     2 S             -13.802  2.00     2 C
                                   -1.01%     1 P:y            -5.135  0.67     3 C
       0.766  0.00    20 A         44.48%     2 S               2.096  0.00     5 H
                                   39.64%     2 S               2.096  0.00     7 H
                                   22.26%     1 S              -6.484  1.00     5 H
                                   21.86%     1 S              -6.484  1.00     7 H
                                  -13.64%     2 P:x             4.559  0.00     2 C
                                  -10.30%     2 P:y             4.559  0.00     1 C
                                   -9.02%     2 P:z             4.559  0.00     2 C
                                   -8.28%     3 S              10.456  0.00     3 C
                                    7.87%     1 S              -6.484  1.00     8 H
                                    7.34%     2 S               2.096  0.00     8 H
                                    5.54%     1 S              -6.484  1.00     6 H
                                    4.21%     1 P:x            -5.135  0.67     3 C
                                   -3.88%     2 P:x             4.559  0.00     1 C
                                    3.11%     1 P:z            -5.135  0.67     3 C
                                   -2.62%     2 S             -13.802  2.00     3 C
                                   -2.61%     1 P:y            -5.135  0.67     1 C
                                   -2.40%     1 P:x            -5.135  0.67     2 C
                                   -2.36%     3 S              10.456  0.00     2 C
                                    2.18%     1 P:y            -5.135  0.67     2 C
                                   -2.12%     2 P:y             4.559  0.00     3 C
                                   -1.56%     3 S              21.890  0.00     4 O
                                   -1.30%     1 P:x            -5.135  0.67     1 C
                                   -1.29%     2 S               2.096  0.00     6 H
                                    1.20%     3 S              41.380  0.00     8 H
                                   -1.13%     2 P:z             4.559  0.00     1 C
                                    1.00%     2 S             -13.802  2.00     1 C
       1.617  0.00    21 A         35.96%     1 S              -6.484  1.00     6 H
                                  -30.94%     2 P:y             4.559  0.00     1 C
                                   28.34%     1 S              -6.484  1.00     8 H
                                   20.24%     2 S               2.096  0.00     6 H
                                   18.22%     1 S              -6.484  1.00     5 H
                                   17.64%     2 S               2.096  0.00     7 H
                                   13.33%     1 S              -6.484  1.00     7 H
                                    8.79%     1 P:y            -5.135  0.67     1 C
                                   -5.75%     2 P:z             4.559  0.00     1 C
                                   -3.83%     2 P:x             4.559  0.00     2 C
                                   -3.79%     2 P:y             4.559  0.00     3 C
                                   -3.78%     2 P:z             4.559  0.00     2 C
                                    3.75%     3 S              41.380  0.00     8 H
                                    3.31%     3 S              41.380  0.00     6 H
                                   -3.27%     2 P:x             4.559  0.00     1 C
                                    2.25%     2 S             -13.802  2.00     3 C
                                    2.24%     1 P:z            -5.135  0.67     1 C
                                   -2.16%     1 P:y            -5.135  0.67     2 C
                                   -1.93%     3 S              10.456  0.00     2 C
                                   -1.52%     1 P:y            -5.135  0.67     3 C
                                    1.49%     1 P:x            -5.135  0.67     1 C
                                   -1.43%     2 P:y             4.559  0.00     2 C
                                   -1.30%     2 P:z             4.559  0.00     3 C
                                    1.30%     3 S              41.380  0.00     7 H
                                    1.27%     2 S             -13.802  2.00     2 C
                                    1.12%     3 S              41.380  0.00     5 H
                                   -1.06%     3 S              10.456  0.00     3 C

 Energy gradients wrt nuclear displacements
 ==========================================

     Atom      Cartesian (a.u./angstrom)
                 X         Y         Z
 ----------------------------------------
     1 C     0.000254 -0.000571 -0.000255
     2 C     0.000172  0.000130  0.000095
     3 C    -0.000383 -0.000145 -0.000540
     4 O    -0.000031  0.000660 -0.000059
     5 H    -0.000414 -0.000220 -0.000180
     6 H    -0.000189 -0.000262  0.000450
     7 H     0.000032  0.000527  0.000168
     8 H     0.000559 -0.000120  0.000322
 ----------------------------------------



 =======================================================================
 Electrostatic potential at the Nuclei due to electrons and other nuclei
 =======================================================================
  
         Atom                  Potential
         ----                  ---------
     1)   C                  14.75882957
     2)   C                  14.76654546
     3)   C                  14.70673200
     4)   O                  22.39785557
     5)   H                   1.09599420
     6)   H                   1.07800620
     7)   H                   1.08684272
     8)   H                   1.07864473
 Mulliken charges used for AMS results%charges...


    =====================
     CALCULATION RESULTS
    =====================

Energy (hartree)            -1.68738288

Gradients (hartree/bohr)
  Index   Atom            d/dx            d/dy            d/dz
      1      C    0.0001344318   -0.0003021382   -0.0001349545
      2      C    0.0000908815    0.0000687808    0.0000504168
      3      C   -0.0002026990   -0.0000766285   -0.0002857701
      4      O   -0.0000165776    0.0003494096   -0.0000313604
      5      H   -0.0002191546   -0.0001165728   -0.0000954954
      6      H   -0.0000998362   -0.0001384292    0.0002379355
      7      H    0.0000170325    0.0002788413    0.0000889929
      8      H    0.0002959215   -0.0000632630    0.0001702352


--------------
Atomic charges
--------------
  Index   Atom    Charge
      1      C    0.4640
      2      C    0.1923
      3      C    0.6402
      4      O   -0.4830
      5      H   -0.2525
      6      H   -0.1938
      7      H   -0.1595
      8      H   -0.2076


Dipole moment vector    (Debye):    -1.93216116   -2.34412340   -1.24531485
              magnitude (Debye):     3.28313422


AMS application finished. Exiting.
NORMAL TERMINATION
     Total cpu time:      34.72
  Total system time:       2.53
 Total elapsed time:      38.54
