

 Parallel Execution: Process Information
 ==============================================================================
 Rank   Node Name                              NodeID   MyNodeRank  NodeMaster
    0   node115                                   0          0          0
    1   node115                                   0          1         -1
    2   node115                                   0          2         -1
    3   node115                                   0          3         -1
 ==============================================================================


May use up to 122928MB of RAM as shared memory on node 0

 *******************************************************************************
 *                                                                             *
 *  --------------------------------                                           *
 *   Amsterdam Modeling Suite (AMS)              2021.102                      *
 *  --------------------------------                                           *
 *                                               r95042 2021-06-07             *
 *                                                                             *
 *                                                                             *
 *                              =================                              *
 *                              |               |                              *
 *                              |     A M S     |                              *
 *                              |               |                              *
 *                              =================                              *
 *                                                                             *
 *                                                                             *
 *   Online information and documentation:  https://www.scm.com/support/       *
 *   E-mail:  support@scm.com   info@scm.com                                   *
 *                                                                             *
 *   Scientific publications using AMS results must be properly referenced     *
 *   See the User Manuals (or the web site) for recommended citations          *
 *   The terms and conditions of the End User License Agreement apply to       *
 *   the use of AMS, https://www.scm.com/license-terms/                        *
 *                                                                             *
 **********************  x86_64_linux_intel / intelmpi  ************************
 
 Licensed to: VU/FEW (+ SARA) / ALGEMEEN / Amsterdam / THE NETHERLANDS
 SCM User ID: u7668
  
 AMS 2021.102  RunTime: Jan23-2022 02:41:52  ShM Nodes: 1  Procs: 4

 AMS jobname: 13.achiral_catalyst.H_H_I2.P1
 AMS jobid  : 356208750

 Start   directory: /scistor/tc/yhk800/MasterProject/calculations/achiral_catalyst_H_H_I2/13.achiral_catalyst.H_H_I2.P1/
 Results directory: /scistor/tc/yhk800/MasterProject/calculations/achiral_catalyst_H_H_I2/13.achiral_catalyst.H_H_I2.P1/
 Scratch directory: /scratch/3976/amstmp_13.achiral_catalyst.H_H_I2.P1_kid0.356208750/


 Communication costs MPI_COMM_WORLD:      1.639 usec per message,   0.0056 usec per 8-byte item
 Communication costs for intra-node:      0.923 usec per message,   0.0059 usec per 8-byte item

 RNG seed: 1220710061 562972278 88993246 -1969108091 -1477429531 1891508112 801098415 1395301383



                      ************************************************************************
                      *  ADF 2021.102  RunTime: Jan23-2022 02:41:53  ShM Nodes: 1  Procs: 4  *
                      ************************************************************************
  
       ***************************
       *  GEOMETRY OPTIMIZATION  *
       ***************************

Optimization Method                    Quasi Newton
Optimization Coordinates               Delocalized Coordinates
Optimize lattice                       F
 
 ------------------------------------------------------
 Convergence criteria (Hartree,Angstrom)
 ------------------------------------------------------
 Maximum gradient               0.001000000000
 Maximum rms gradient           0.000666666667
 Maximum step allowed           0.010000000000
 Maximum rms step allowed       0.006666666667
 Maximum energy change allowe   0.000140000000
 Maximum stress energy allowe   0.000500000000
 
Initial model Hessian                  Automatic Hessian
 
------------------------------------
Quasi-Newton Optimizer Parameters
------------------------------------
Hessian Update Method                  BFGS
Maximum number of steps                  250
First GDIIS cycle                          0
Maximum GDIIS vectors                      0
Trust radius (bohr)                        0.200000
Trust radius varies                        T
Constraints converged at all steps         T
Use projector                              T
 
 Rigid motions settings for: old optimizer
 Atomic rotations (x,y,z):     T T T
 Atomic translations (x,y,z):  T T T
 Tolerance:                   1.000000000000000E-006
 
--------
Geometry
--------
Formula: C4H7I2O
Atoms
  Index Symbol   x (angstrom)   y (angstrom)   z (angstrom)
      1      H     0.30883566    -1.71322737     0.34845077
      2      C    -0.85933175     0.07325638     0.95361639
      3      C     0.30566658    -0.62207952     0.35697327
      4      C     1.44363467     0.02246096    -0.23005168
      5      O     1.61592302     1.24992601    -0.30213575
      6      H    -0.69195270     1.15283717     0.94428296
      7      H    -1.40849480    -1.48746718     2.39475159
      8      C    -1.20706757    -0.41125312     2.37345100
      9      H    -0.38777363    -0.20492454     3.06899219
     10      H    -2.09949902     0.10683830     2.73788510
     11      H    -1.70568492    -0.10955427     0.32499363
     12      H     2.18584514    -0.63577321    -0.63098981
     13      I     2.05590296     4.51894516    -0.20247893
     14      I     2.42508613     7.26194940    -0.11885780
 
Total System Charge             0.00000
 
 
----------------
ADF Engine Input
----------------
 
 NumericalQuality VeryGood
 SCF
 Converge 1.0e-6
 Iterations 99
 End
 SYMMETRY NOSYM
 SpinPolarization 1.0
 Unrestricted Yes
 XC
 GGA OLYP
 End
 basis
 core None
 type TZ2P
 End
 

 Title: *** (NO TITLE) ***

Bad geometry: could not add a dihedral for atom   14
 Using automatic Hessian for delocalized coordinates.
 *** GOStep1 ***

 Energy gradients wrt nuclear displacements
 ==========================================

     Atom      Cartesian (a.u./angstrom)
                 X         Y         Z
 ----------------------------------------
     1 H     0.000100  0.000202  0.000118
     2 C    -0.029072 -0.006457 -0.021292
     3 C    -0.000191 -0.001954 -0.001012
     4 C     0.029708 -0.024246 -0.016232
     5 O     0.003231 -0.003251 -0.001658
     6 H    -0.001834 -0.001422 -0.000179
     7 H     0.000064 -0.000058  0.000026
     8 C    -0.000788 -0.000084 -0.001676
     9 H     0.000246  0.000200 -0.000126
    10 H     0.000076  0.000034 -0.000030
    11 H     0.032609  0.007084  0.023593
    12 H    -0.034100  0.030499  0.018425
    13 I    -0.003334 -0.024520 -0.000604
    14 I     0.003285  0.023973  0.000647
 ----------------------------------------
 Mulliken charges used for AMS results%charges...
 
----------------------------------------------------------------------
Geometry Convergence after Step   1       (Hartree/Angstrom,Angstrom)
----------------------------------------------------------------------
current energy                               -2.47032159 Hartree
energy change                      -2.47032159     0.00014000    F
constrained gradient max            0.03411036     0.00100000    F
constrained gradient rms            0.01415319     0.00066667    F
gradient max                        0.03410855
gradient rms                        0.01415319
cart. step max                      0.06242597     0.01000000    F
cart. step rms                      0.02309645     0.00666667    F
 
 
--------
Geometry
--------
Formula: C4H7I2O
Atoms
  Index Symbol   x (angstrom)   y (angstrom)   z (angstrom)
      1      H     0.29391828    -1.72420274     0.34836236
      2      C    -0.84883419     0.08426722     0.94509850
      3      C     0.30575547    -0.63297756     0.35261423
      4      C     1.45151862    -0.00311968    -0.23528037
      5      O     1.62095879     1.22654409    -0.30288482
      6      H    -0.65850779     1.16088677     0.92708694
      7      H    -1.41642381    -1.45351442     2.40418821
      8      C    -1.19604287    -0.38130159     2.37234463
      9      H    -0.36967745    -0.18383030     3.06193421
     10      H    -2.07735367     0.15524165     2.73721977
     11      H    -1.71906962    -0.09248061     0.30874589
     12      H     2.20974985    -0.68127366    -0.64620681
     13      I     2.02243802     4.50063298    -0.18351053
     14      I     2.36266016     7.22706201    -0.07082927
 
Total System Charge             0.00000
 
 *** GOStep2 ***

 Energy gradients wrt nuclear displacements
 ==========================================

     Atom      Cartesian (a.u./angstrom)
                 X         Y         Z
 ----------------------------------------
     1 H     0.000302  0.000104 -0.000095
     2 C    -0.010440 -0.002712 -0.007279
     3 C    -0.000433  0.001136  0.000501
     4 C     0.011190 -0.012979 -0.006090
     5 O    -0.000060  0.003545  0.000149
     6 H    -0.000080 -0.000147  0.000363
     7 H     0.000042 -0.000017 -0.000072
     8 C     0.000288  0.000324 -0.000313
     9 H    -0.000047 -0.000058  0.000178
    10 H     0.000010 -0.000010 -0.000004
    11 H     0.009792  0.002108  0.007088
    12 H    -0.010459  0.009357  0.005553
    13 I    -0.002521 -0.019322 -0.000685
    14 I     0.002418  0.018672  0.000706
 ----------------------------------------
 Mulliken charges used for AMS results%charges...

 dE(predicted):    -0.14246E-02, dE(actual):    -0.19244E-02, Trust radius:    0.200000, all in a.u.
 
----------------------------------------------------------------------
Geometry Convergence after Step   2       (Hartree/Angstrom,Angstrom)
----------------------------------------------------------------------
current energy                               -2.47224601 Hartree
energy change                      -0.00192442     0.00014000    F
constrained gradient max            0.01933636     0.00100000    F
constrained gradient rms            0.00622694     0.00066667    F
gradient max                        0.01933638
gradient rms                        0.00622694
cart. step max                      0.04064335     0.01000000    F
cart. step rms                      0.01511599     0.00666667    F
 
 
--------
Geometry
--------
Formula: C4H7I2O
Atoms
  Index Symbol   x (angstrom)   y (angstrom)   z (angstrom)
      1      H     0.28594270    -1.73058062     0.34960376
      2      C    -0.84288301     0.09038393     0.93917304
      3      C     0.30444394    -0.63933730     0.34795036
      4      C     1.45211711    -0.01448005    -0.24095382
      5      O     1.62595009     1.21265985    -0.30771311
      6      H    -0.64482940     1.16559327     0.90949072
      7      H    -1.41563939    -1.43133908     2.41415791
      8      C    -1.18789482    -0.36102316     2.37189677
      9      H    -0.35688059    -0.16322269     3.05566624
     10      H    -2.06381274     0.18485294     2.73593117
     11      H    -1.72727090    -0.08868229     0.30054123
     12      H     2.22285438    -0.70567563    -0.64970973
     13      I     2.00697558     4.49019070    -0.17420911
     14      I     2.32201681     7.19259430    -0.03294252
 
Total System Charge             0.00000
 
 *** GOStep3 ***

 Energy gradients wrt nuclear displacements
 ==========================================

     Atom      Cartesian (a.u./angstrom)
                 X         Y         Z
 ----------------------------------------
     1 H     0.000088 -0.000258  0.000013
     2 C     0.000789  0.000116  0.000603
     3 C     0.000686  0.001273  0.000465
     4 C    -0.001423 -0.000569 -0.001108
     5 O    -0.000639  0.001375  0.001099
     6 H     0.000497  0.000323  0.000194
     7 H    -0.000030 -0.000066  0.000029
     8 C     0.000429  0.000027  0.000274
     9 H    -0.000106 -0.000074  0.000042
    10 H    -0.000047 -0.000021 -0.000010
    11 H    -0.001911 -0.000366 -0.001300
    12 H     0.001776 -0.000997 -0.000283
    13 I    -0.001453 -0.011608 -0.000552
    14 I     0.001344  0.010844  0.000533
 ----------------------------------------
 Mulliken charges used for AMS results%charges...

 dE(predicted):    -0.45236E-03, dE(actual):    -0.55609E-03, Trust radius:    0.200000, all in a.u.
 
----------------------------------------------------------------------
Geometry Convergence after Step   3       (Hartree/Angstrom,Angstrom)
----------------------------------------------------------------------
current energy                               -2.47280211 Hartree
energy change                      -0.00055609     0.00014000    F
constrained gradient max            0.01162178     0.00100000    F
constrained gradient rms            0.00257136     0.00066667    F
gradient max                        0.01162182
gradient rms                        0.00257136
cart. step max                      0.02853399     0.01000000    F
cart. step rms                      0.01080545     0.00666667    F
 
 
--------
Geometry
--------
Formula: C4H7I2O
Atoms
  Index Symbol   x (angstrom)   y (angstrom)   z (angstrom)
      1      H     0.27562050    -1.72860070     0.33974451
      2      C    -0.83319757     0.09955194     0.94449584
      3      C     0.30768273    -0.63788700     0.35075482
      4      C     1.46558405    -0.01897529    -0.22512231
      5      O     1.64380247     1.20639467    -0.30153835
      6      H    -0.62475259     1.17281532     0.92336185
      7      H    -1.43010631    -1.42808612     2.40358275
      8      C    -1.19067124    -0.36001734     2.37147455
      9      H    -0.36061717    -0.17682736     3.06049962
     10      H    -2.06227387     0.19241602     2.73590691
     11      H    -1.71886894    -0.06553937     0.29899236
     12      H     2.21652674    -0.71749987    -0.66804665
     13      I     1.99887815     4.48912118    -0.17992679
     14      I     2.29348282     7.17506808    -0.03529619
 
Total System Charge             0.00000
 
 *** GOStep4 ***

 Energy gradients wrt nuclear displacements
 ==========================================

     Atom      Cartesian (a.u./angstrom)
                 X         Y         Z
 ----------------------------------------
     1 H    -0.000050 -0.000183  0.000112
     2 C     0.003814  0.000849  0.002742
     3 C    -0.000783  0.000313 -0.002465
     4 C     0.000388  0.003106  0.009659
     5 O    -0.001945  0.000956 -0.002102
     6 H     0.000315  0.000194  0.000024
     7 H    -0.000025 -0.000042  0.000012
     8 C     0.000106 -0.000029  0.000251
     9 H    -0.000048 -0.000011 -0.000052
    10 H    -0.000035 -0.000035  0.000029
    11 H    -0.004260 -0.000859 -0.003032
    12 H     0.002627 -0.003446 -0.005106
    13 I    -0.000696 -0.005429 -0.000332
    14 I     0.000592  0.004616  0.000262
 ----------------------------------------
 Mulliken charges used for AMS results%charges...

 dE(predicted):    -0.11687E-03, dE(actual):    -0.53348E-04, Trust radius:    0.200000, all in a.u.
 
----------------------------------------------------------------------
Geometry Convergence after Step   4       (Hartree/Angstrom,Angstrom)
----------------------------------------------------------------------
current energy                               -2.47285546 Hartree
energy change                      -0.00005335     0.00014000    T
constrained gradient max            0.00966144     0.00100000    F
constrained gradient rms            0.00252024     0.00066667    F
gradient max                        0.00966262
gradient rms                        0.00252024
cart. step max                      0.06466653     0.01000000    F
cart. step rms                      0.02224075     0.00666667    F
 
 
--------
Geometry
--------
Formula: C4H7I2O
Atoms
  Index Symbol   x (angstrom)   y (angstrom)   z (angstrom)
      1      H     0.27713675    -1.73615316     0.35304999
      2      C    -0.83466934     0.09814272     0.93147489
      3      C     0.30444139    -0.64560665     0.34285515
      4      C     1.45388553    -0.03177697    -0.25644978
      5      O     1.64781199     1.19111653    -0.32618014
      6      H    -0.63660223     1.17206664     0.88160491
      7      H    -1.40909551    -1.39891007     2.43023987
      8      C    -1.17782872    -0.33026124     2.37135945
      9      H    -0.34315656    -0.12498772     3.04858579
     10      H    -2.05022934     0.22460705     2.73000792
     11      H    -1.72559946    -0.08915686     0.29761662
     12      H     2.22495611    -0.74006236    -0.65268770
     13      I     1.99068093     4.47640307    -0.16196437
     14      I     2.25935823     7.13651319     0.02937034
 
Total System Charge             0.00000
 
 *** GOStep5 ***

 Energy gradients wrt nuclear displacements
 ==========================================

     Atom      Cartesian (a.u./angstrom)
                 X         Y         Z
 ----------------------------------------
     1 H    -0.000300  0.000069  0.000018
     2 C     0.005632  0.001590  0.003740
     3 C     0.001045 -0.001534  0.001392
     4 C    -0.008426  0.006463 -0.002190
     5 O     0.001064  0.000791  0.001902
     6 H    -0.000169 -0.000109 -0.000314
     7 H    -0.000009  0.000014 -0.000002
     8 C    -0.000360 -0.000306  0.000120
     9 H     0.000070  0.000050 -0.000153
    10 H    -0.000030 -0.000015  0.000017
    11 H    -0.004913 -0.001005 -0.003448
    12 H     0.006457 -0.005121 -0.000988
    13 I     0.000382  0.003912  0.000223
    14 I    -0.000443 -0.004797 -0.000319
 ----------------------------------------
 Mulliken charges used for AMS results%charges...

 dE(predicted):    -0.18634E-03, dE(actual):    -0.25945E-04, Trust radius:    0.025166, all in a.u.
 
----------------------------------------------------------------------
Geometry Convergence after Step   5       (Hartree/Angstrom,Angstrom)
----------------------------------------------------------------------
current energy                               -2.47288140 Hartree
energy change                      -0.00002594     0.00014000    T
constrained gradient max            0.00843340     0.00100000    F
constrained gradient rms            0.00276800     0.00066667    F
gradient max                        0.00843233
gradient rms                        0.00276800
cart. step max                      0.00779159     0.01000000    T
cart. step rms                      0.00324002     0.00666667    T
 
 
--------
Geometry
--------
Formula: C4H7I2O
Atoms
  Index Symbol   x (angstrom)   y (angstrom)   z (angstrom)
      1      H     0.27454094    -1.73545781     0.35031686
      2      C    -0.83345150     0.09984162     0.93263259
      3      C     0.30478350    -0.64489083     0.34341907
      4      C     1.45751729    -0.03435830    -0.25235605
      5      O     1.65119861     1.18873495    -0.32394234
      6      H    -0.63214695     1.17346993     0.88745126
      7      H    -1.41317638    -1.40081176     2.42559481
      8      C    -1.17898283    -0.33256365     2.37071186
      9      H    -0.34477463    -0.13203301     3.04993365
     10      H    -2.05034041     0.22334996     2.73026306
     11      H    -1.72116797    -0.08217323     0.29896619
     12      H     2.22070999    -0.74042148    -0.65424160
     13      I     1.98834703     4.47494301    -0.16306307
     14      I     2.25803309     7.14430478     0.02319666
 
Total System Charge             0.00000
 
 *** GOStep6 ***

 Energy gradients wrt nuclear displacements
 ==========================================

     Atom      Cartesian (a.u./angstrom)
                 X         Y         Z
 ----------------------------------------
     1 H    -0.000105  0.000095 -0.000041
     2 C     0.002477  0.000654  0.001728
     3 C     0.000553 -0.000718  0.000777
     4 C    -0.003618  0.002973 -0.001939
     5 O     0.000254  0.000523  0.001368
     6 H    -0.000203 -0.000029 -0.000233
     7 H     0.000013  0.000002 -0.000014
     8 C    -0.000283 -0.000162 -0.000030
     9 H     0.000044  0.000022 -0.000071
    10 H     0.000002 -0.000016  0.000012
    11 H    -0.001877 -0.000359 -0.001362
    12 H     0.002802 -0.002152 -0.000102
    13 I     0.000030  0.000557 -0.000021
    14 I    -0.000088 -0.001390 -0.000072
 ----------------------------------------
 Mulliken charges used for AMS results%charges...

 dE(predicted):    -0.89220E-04, dE(actual):    -0.95397E-04, Trust radius:    0.050332, all in a.u.
 
----------------------------------------------------------------------
Geometry Convergence after Step   6       (Hartree/Angstrom,Angstrom)
----------------------------------------------------------------------
current energy                               -2.47297680 Hartree
energy change                      -0.00009540     0.00014000    T
constrained gradient max            0.00362450     0.00100000    F
constrained gradient rms            0.00118882     0.00066667    F
gradient max                        0.00362343
gradient rms                        0.00118882
cart. step max                      0.02303002     0.01000000    F
cart. step rms                      0.00778783     0.00666667    F
 
 
--------
Geometry
--------
Formula: C4H7I2O
Atoms
  Index Symbol   x (angstrom)   y (angstrom)   z (angstrom)
      1      H     0.26591814    -1.73625652     0.34698883
      2      C    -0.82820786     0.10623159     0.93234537
      3      C     0.30511223    -0.64586509     0.34296289
      4      C     1.46501694    -0.04462098    -0.24814671
      5      O     1.66468565     1.17766803    -0.32404203
      6      H    -0.61717604     1.17823692     0.89177878
      7      H    -1.42094658    -1.39406060     2.42050618
      8      C    -1.17780380    -0.32762481     2.36900978
      9      H    -0.34259920    -0.13621646     3.04963681
     10      H    -2.04480540     0.23437382     2.72963110
     11      H    -1.71481975    -0.06592224     0.29853667
     12      H     2.21555714    -0.75353557    -0.65941238
     13      I     1.97615522     4.46782785    -0.15910278
     14      I     2.23500307     7.14169822     0.02819043
 
Total System Charge             0.00000
 
 *** GOStep7 ***

 Energy gradients wrt nuclear displacements
 ==========================================

     Atom      Cartesian (a.u./angstrom)
                 X         Y         Z
 ----------------------------------------
     1 H     0.000028  0.000062 -0.000008
     2 C     0.000125 -0.000062  0.000218
     3 C    -0.000198 -0.000104 -0.000117
     4 C     0.000770  0.000027 -0.000115
     5 O    -0.000562  0.000868  0.000392
     6 H    -0.000099  0.000006 -0.000081
     7 H     0.000028 -0.000003 -0.000026
     8 C    -0.000097  0.000003 -0.000123
     9 H     0.000016 -0.000011  0.000015
    10 H     0.000023 -0.000020 -0.000007
    11 H     0.000128  0.000027  0.000019
    12 H    -0.000115 -0.000016 -0.000063
    13 I    -0.000104 -0.000667 -0.000128
    14 I     0.000057 -0.000110  0.000023
 ----------------------------------------
 Mulliken charges used for AMS results%charges...

 dE(predicted):    -0.28621E-04, dE(actual):    -0.27817E-04, Trust radius:    0.050332, all in a.u.
 
----------------------------------------------------------------------
Geometry Convergence after Step   7       (Hartree/Angstrom,Angstrom)
----------------------------------------------------------------------
current energy                               -2.47300461 Hartree
energy change                      -0.00002782     0.00014000    T
constrained gradient max            0.00085493     0.00100000    T
constrained gradient rms            0.00024528     0.00066667    T
gradient max                        0.00085476
gradient rms                        0.00024528
cart. step max                      0.02649595     0.01000000    F
cart. step rms                      0.00868457     0.00666667    F
 
 
--------
Geometry
--------
Formula: C4H7I2O
Atoms
  Index Symbol   x (angstrom)   y (angstrom)   z (angstrom)
      1      H     0.25834661    -1.73845197     0.34643822
      2      C    -0.82332926     0.11193225     0.92992594
      3      C     0.30495604    -0.64830940     0.34125509
      4      C     1.46916108    -0.05599761    -0.25031197
      5      O     1.67700749     1.16488426    -0.32827899
      6      H    -0.60473100     1.18239949     0.88855370
      7      H    -1.42474466    -1.38264148     2.42049250
      8      C    -1.17448015    -0.31791650     2.36747309
      9      H    -0.33747886    -0.13129234     3.04720168
     10      H    -2.03743086     0.25027522     2.72813742
     11      H    -1.71104178    -0.05484803     0.29724148
     12      H     2.21378392    -0.76985295    -0.66148091
     13      I     1.96256409     4.45845970    -0.15094962
     14      I     2.20850712     7.13329351     0.04318530
 
Total System Charge             0.00000
 
 *** GOStep8 ***

 Energy gradients wrt nuclear displacements
 ==========================================

     Atom      Cartesian (a.u./angstrom)
                 X         Y         Z
 ----------------------------------------
     1 H     0.000054  0.000027 -0.000004
     2 C    -0.000551 -0.000226 -0.000254
     3 C    -0.000224  0.000112 -0.000159
     4 C     0.001617 -0.000705 -0.000180
     5 O    -0.000740  0.000856  0.000350
     6 H    -0.000018  0.000016 -0.000013
     7 H     0.000022 -0.000011 -0.000018
     8 C     0.000000  0.000045 -0.000124
     9 H     0.000003 -0.000021  0.000027
    10 H     0.000018 -0.000021 -0.000011
    11 H     0.000591  0.000108  0.000363
    12 H    -0.000741  0.000560  0.000138
    13 I    -0.000106 -0.000693 -0.000141
    14 I     0.000074 -0.000047  0.000027
 ----------------------------------------
 Mulliken charges used for AMS results%charges...

 dE(predicted):    -0.51928E-05, dE(actual):    -0.50183E-05, Trust radius:    0.050332, all in a.u.
 
----------------------------------------------------------------------
Geometry Convergence after Step   8       (Hartree/Angstrom,Angstrom)
----------------------------------------------------------------------
current energy                               -2.47300963 Hartree
energy change                      -0.00000502     0.00014000    T
constrained gradient max            0.00161033     0.00100000    F
constrained gradient rms            0.00040730     0.00066667    T
gradient max                        0.00161151
gradient rms                        0.00040731
cart. step max                      0.08883438     0.01000000    F
cart. step rms                      0.02926893     0.00666667    F
 
 
--------
Geometry
--------
Formula: C4H7I2O
Atoms
  Index Symbol   x (angstrom)   y (angstrom)   z (angstrom)
      1      H     0.23388838    -1.74516237     0.34593340
      2      C    -0.80661410     0.13101811     0.92164775
      3      C     0.30461725    -0.65620353     0.33569558
      4      C     1.48168567    -0.09352159    -0.25901242
      5      O     1.71700418     1.12214630    -0.34416390
      6      H    -0.56377054     1.19610117     0.87641676
      7      H    -1.43635036    -1.34340020     2.42110854
      8      C    -1.16295268    -0.28464285     2.36233296
      9      H    -0.32034487    -0.11316659     3.03904098
     10      H    -2.01243800     0.30384275     2.72254503
     11      H    -1.69824630    -0.01890070     0.29243511
     12      H     2.20831191    -0.82426989    -0.66764077
     13      I     1.91662648     4.42555976    -0.12263609
     14      I     2.11967275     7.10253379     0.09517999
 
Total System Charge             0.00000
 
 *** GOStep9 ***

 Energy gradients wrt nuclear displacements
 ==========================================

     Atom      Cartesian (a.u./angstrom)
                 X         Y         Z
 ----------------------------------------
     1 H     0.000088 -0.000108 -0.000002
     2 C    -0.002107 -0.000464 -0.001403
     3 C    -0.000126  0.000598 -0.000137
     4 C     0.003221 -0.002491 -0.000607
     5 O    -0.001059  0.000875  0.000349
     6 H     0.000206  0.000055  0.000160
     7 H    -0.000006 -0.000042  0.000022
     8 C     0.000257  0.000092 -0.000053
     9 H    -0.000031 -0.000043  0.000037
    10 H    -0.000018 -0.000023 -0.000012
    11 H     0.001551  0.000245  0.001108
    12 H    -0.001986  0.001899  0.000669
    13 I    -0.000103 -0.000588 -0.000155
    14 I     0.000114 -0.000005  0.000026
 ----------------------------------------
 Mulliken charges used for AMS results%charges...

 dE(predicted):    -0.33324E-04, dE(actual):    -0.20097E-04, Trust radius:    0.050332, all in a.u.
 
----------------------------------------------------------------------
Geometry Convergence after Step   9       (Hartree/Angstrom,Angstrom)
----------------------------------------------------------------------
current energy                               -2.47302973 Hartree
energy change                      -0.00002010     0.00014000    T
constrained gradient max            0.00321409     0.00100000    F
constrained gradient rms            0.00095401     0.00066667    F
gradient max                        0.00321533
gradient rms                        0.00095401
cart. step max                      0.08796224     0.01000000    F
cart. step rms                      0.02926349     0.00666667    F
 
 
--------
Geometry
--------
Formula: C4H7I2O
Atoms
  Index Symbol   x (angstrom)   y (angstrom)   z (angstrom)
      1      H     0.21065065    -1.75092817     0.34710785
      2      C    -0.79013788     0.14979540     0.91259764
      3      C     0.30431097    -0.66358056     0.33035209
      4      C     1.49272221    -0.13030871    -0.26848626
      5      O     1.75480249     1.07961257    -0.36138259
      6      H    -0.52415834     1.20914122     0.86254260
      7      H    -1.44606657    -1.30317653     2.42250293
      8      C    -1.15069612    -0.25068799     2.35686641
      9      H    -0.30282619    -0.09305202     3.03025019
     10      H    -1.98681641     0.35729794     2.71613957
     11      H    -1.68540795     0.01534337     0.28705796
     12      H     2.20261496    -0.87721695    -0.67234942
     13      I     1.87038743     4.39067912    -0.09300695
     14      I     2.03171050     7.06901549     0.14869094
 
Total System Charge             0.00000
 
 *** GOStep10 ***

 Energy gradients wrt nuclear displacements
 ==========================================

     Atom      Cartesian (a.u./angstrom)
                 X         Y         Z
 ----------------------------------------
     1 H     0.000098 -0.000316  0.000002
     2 C    -0.003656 -0.000565 -0.002585
     3 C     0.000195  0.001108  0.000039
     4 C     0.004334 -0.004379 -0.001397
     5 O    -0.001174  0.000892  0.000434
     6 H     0.000469  0.000113  0.000339
     7 H    -0.000048 -0.000085  0.000085
     8 C     0.000539  0.000087  0.000064
     9 H    -0.000082 -0.000066  0.000029
    10 H    -0.000073 -0.000017 -0.000007
    11 H     0.002400  0.000341  0.001802
    12 H    -0.003027  0.003299  0.001315
    13 I    -0.000133 -0.000499 -0.000140
    14 I     0.000157  0.000087  0.000019
 ----------------------------------------
 Mulliken charges used for AMS results%charges...

 dE(predicted):    -0.36409E-04, dE(actual):    -0.19943E-04, Trust radius:    0.050332, all in a.u.
 
----------------------------------------------------------------------
Geometry Convergence after Step  10       (Hartree/Angstrom,Angstrom)
----------------------------------------------------------------------
current energy                               -2.47304967 Hartree
energy change                      -0.00001994     0.00014000    T
constrained gradient max            0.00439138     0.00100000    F
constrained gradient rms            0.00151116     0.00066667    F
gradient max                        0.00439170
gradient rms                        0.00151116
cart. step max                      0.07482601     0.01000000    F
cart. step rms                      0.02631091     0.00666667    F
 
 
--------
Geometry
--------
Formula: C4H7I2O
Atoms
  Index Symbol   x (angstrom)   y (angstrom)   z (angstrom)
      1      H     0.19373309    -1.75727521     0.35487547
      2      C    -0.77790005     0.16413739     0.90147621
      3      C     0.30384713    -0.67134924     0.32595149
      4      C     1.49903053    -0.16349828    -0.28077287
      5      O     1.78311514     1.04105931    -0.38434349
      6      H    -0.49521364     1.21868808     0.84202461
      7      H    -1.44888808    -1.26494081     2.42911174
      8      C    -1.13801155    -0.21762885     2.35164418
      9      H    -0.28496973    -0.06608355     3.01964321
     10      H    -1.96365462     0.40605394     2.70862774
     11      H    -1.67729518     0.03717240     0.28116141
     12      H     2.19890288    -0.92407714    -0.67297947
     13      I     1.83150936     4.36031939    -0.06153818
     14      I     1.95688449     7.03935673     0.20400087
 
Total System Charge             0.00000
 
 *** GOStep11 ***

 Energy gradients wrt nuclear displacements
 ==========================================

     Atom      Cartesian (a.u./angstrom)
                 X         Y         Z
 ----------------------------------------
     1 H     0.000028 -0.000752  0.000039
     2 C    -0.004710 -0.000301 -0.003723
     3 C     0.001054  0.001582  0.000638
     4 C     0.003727 -0.006197 -0.003003
     5 O    -0.000609  0.001147  0.000741
     6 H     0.000781  0.000207  0.000530
     7 H    -0.000137 -0.000178  0.000227
     8 C     0.000940 -0.000079  0.000375
     9 H    -0.000176 -0.000105 -0.000056
    10 H    -0.000209  0.000013  0.000025
    11 H     0.002578  0.000376  0.002133
    12 H    -0.003279  0.004492  0.002139
    13 I    -0.000181 -0.000567 -0.000065
    14 I     0.000194  0.000363 -0.000001
 ----------------------------------------
 Mulliken charges used for AMS results%charges...

 dE(predicted):    -0.34286E-04, dE(actual):    -0.16510E-04, Trust radius:    0.050332, all in a.u.
 
----------------------------------------------------------------------
Geometry Convergence after Step  11       (Hartree/Angstrom,Angstrom)
----------------------------------------------------------------------
current energy                               -2.47306618 Hartree
energy change                      -0.00001651     0.00014000    T
constrained gradient max            0.00620989     0.00100000    F
constrained gradient rms            0.00191357     0.00066667    F
gradient max                        0.00621024
gradient rms                        0.00191357
cart. step max                      0.09090453     0.01000000    F
cart. step rms                      0.02929834     0.00666667    F
 
 
--------
Geometry
--------
Formula: C4H7I2O
Atoms
  Index Symbol   x (angstrom)   y (angstrom)   z (angstrom)
      1      H     0.16977047    -1.75952448     0.35315421
      2      C    -0.75943113     0.18398176     0.89412854
      3      C     0.30393220    -0.67645026     0.32121315
      4      C     1.51093956    -0.19793340    -0.28576253
      5      O     1.82015351     0.99969795    -0.39787891
      6      H    -0.45356769     1.23179937     0.83187594
      7      H    -1.45937589    -1.22472795     2.42748853
      8      C    -1.12596072    -0.18468793     2.34614346
      9      H    -0.26917975    -0.04923179     3.01283149
     10      H    -1.93757646     0.45796129     2.70160598
     11      H    -1.66102361     0.07455545     0.27543978
     12      H     2.18989792    -0.97440730    -0.68026857
     13      I     1.78653141     4.32178301    -0.03627825
     14      I     1.86597996     6.99911846     0.25519009
 
Total System Charge             0.00000
 
 *** GOStep12 ***

 Energy gradients wrt nuclear displacements
 ==========================================

     Atom      Cartesian (a.u./angstrom)
                 X         Y         Z
 ----------------------------------------
     1 H     0.000070 -0.000648  0.000056
     2 C    -0.005845 -0.000519 -0.004422
     3 C     0.000815  0.001874  0.000042
     4 C     0.005567 -0.007248 -0.001695
     5 O    -0.001192  0.000784  0.000219
     6 H     0.000960  0.000194  0.000641
     7 H    -0.000138 -0.000143  0.000167
     8 C     0.001018  0.000021  0.000386
     9 H    -0.000166 -0.000098 -0.000005
    10 H    -0.000196  0.000000  0.000024
    11 H     0.003455  0.000401  0.002693
    12 H    -0.004301  0.005430  0.001932
    13 I    -0.000268  0.000014  0.000016
    14 I     0.000220 -0.000063 -0.000054
 ----------------------------------------
 Mulliken charges used for AMS results%charges...

 dE(predicted):    -0.32834E-04, dE(actual):    -0.83782E-05, Trust radius:    0.050332, all in a.u.
 
----------------------------------------------------------------------
Geometry Convergence after Step  12       (Hartree/Angstrom,Angstrom)
----------------------------------------------------------------------
current energy                               -2.47307456 Hartree
energy change                      -0.00000838     0.00014000    T
constrained gradient max            0.00726159     0.00100000    F
constrained gradient rms            0.00229374     0.00066667    F
gradient max                        0.00726189
gradient rms                        0.00229374
cart. step max                      0.03436758     0.01000000    F
cart. step rms                      0.01089142     0.00666667    F
 
 
--------
Geometry
--------
Formula: C4H7I2O
Atoms
  Index Symbol   x (angstrom)   y (angstrom)   z (angstrom)
      1      H     0.17644938    -1.76459408     0.36891591
      2      C    -0.75822754     0.18035075     0.89038224
      3      C     0.30686846    -0.68210409     0.32448870
      4      C     1.51042583    -0.20706513    -0.29179121
      5      O     1.81418818     0.98912216    -0.42508855
      6      H    -0.45818948     1.22858294     0.81595170
      7      H    -1.45356220    -1.21252297     2.43899117
      8      C    -1.12428464    -0.17226005     2.34665632
      9      H    -0.26815259    -0.02551038     3.01197143
     10      H    -1.93846832     0.47141959     2.69388887
     11      H    -1.66060991     0.05982863     0.27218543
     12      H     2.18794581    -0.98983278    -0.68531660
     13      I     1.79523293     4.32731048    -0.03191016
     14      I     1.85147387     6.99920909     0.28955767
 
Total System Charge             0.00000
 
 *** GOStep13 ***

 Energy gradients wrt nuclear displacements
 ==========================================

     Atom      Cartesian (a.u./angstrom)
                 X         Y         Z
 ----------------------------------------
     1 H     0.000115  0.000072  0.000037
     2 C    -0.003882 -0.000459 -0.003441
     3 C     0.000539  0.001374 -0.001025
     4 C     0.004402 -0.003997  0.001529
     5 O    -0.001589 -0.000194 -0.000532
     6 H     0.000604 -0.000287  0.000778
     7 H    -0.000076  0.000014 -0.000102
     8 C     0.000514  0.000206  0.000841
     9 H    -0.000042 -0.000002  0.000036
    10 H    -0.000105 -0.000043  0.000016
    11 H     0.002251  0.000190  0.001703
    12 H    -0.002739  0.003045  0.000168
    13 I    -0.000115  0.001009  0.000155
    14 I     0.000122 -0.000928 -0.000165
 ----------------------------------------
 Mulliken charges used for AMS results%charges...

 dE(predicted):    -0.37224E-04, dE(actual):    -0.29218E-04, Trust radius:    0.100663, all in a.u.
 
----------------------------------------------------------------------
Geometry Convergence after Step  13       (Hartree/Angstrom,Angstrom)
----------------------------------------------------------------------
current energy                               -2.47310378 Hartree
energy change                      -0.00002922     0.00014000    T
constrained gradient max            0.00439098     0.00100000    F
constrained gradient rms            0.00154131     0.00066667    F
gradient max                        0.00439262
gradient rms                        0.00154131
cart. step max                      0.14169377     0.01000000    F
cart. step rms                      0.05035937     0.00666667    F
 
 
--------
Geometry
--------
Formula: C4H7I2O
Atoms
  Index Symbol   x (angstrom)   y (angstrom)   z (angstrom)
      1      H     0.15201492    -1.77464036     0.39101647
      2      C    -0.73699666     0.20232083     0.86784967
      3      C     0.30649421    -0.69665395     0.31845174
      4      C     1.51807187    -0.26645294    -0.31461499
      5      O     1.85595926     0.91766467    -0.47526149
      6      H    -0.41648080     1.24190115     0.76514450
      7      H    -1.44730509    -1.13580431     2.45863102
      8      C    -1.09806271    -0.10516103     2.33618038
      9      H    -0.23374839     0.04192738     2.99058709
     10      H    -1.89650005     0.56371631     2.67227535
     11      H    -1.64636350     0.08404219     0.26030146
     12      H     2.17628822    -1.07506692    -0.68625281
     13      I     1.73793837     4.26931905     0.02288156
     14      I     1.70978010     6.93482208     0.41169297
 
Total System Charge             0.00000
 
 *** GOStep14 ***

 Energy gradients wrt nuclear displacements
 ==========================================

     Atom      Cartesian (a.u./angstrom)
                 X         Y         Z
 ----------------------------------------
     1 H     0.000062 -0.000134  0.000117
     2 C    -0.004541 -0.000290 -0.004114
     3 C     0.001074  0.001407 -0.000503
     4 C     0.003026 -0.005124  0.000034
     5 O    -0.000523  0.000062 -0.000447
     6 H     0.000731 -0.000208  0.000870
     7 H    -0.000124 -0.000020 -0.000005
     8 C     0.000701  0.000066  0.001115
     9 H    -0.000091 -0.000010 -0.000027
    10 H    -0.000152 -0.000024 -0.000012
    11 H     0.002516  0.000258  0.001949
    12 H    -0.002600  0.003691  0.000884
    13 I    -0.000196  0.000628  0.000293
    14 I     0.000116 -0.000302 -0.000155
 ----------------------------------------
 Mulliken charges used for AMS results%charges...

 dE(predicted):    -0.56595E-04, dE(actual):    -0.24909E-04, Trust radius:    0.100663, all in a.u.
 
----------------------------------------------------------------------
Geometry Convergence after Step  14       (Hartree/Angstrom,Angstrom)
----------------------------------------------------------------------
current energy                               -2.47312869 Hartree
energy change                      -0.00002491     0.00014000    T
constrained gradient max            0.00513151     0.00100000    F
constrained gradient rms            0.00163347     0.00066667    F
gradient max                        0.00513164
gradient rms                        0.00163347
cart. step max                      0.05034642     0.01000000    F
cart. step rms                      0.01783868     0.00666667    F
 
 
--------
Geometry
--------
Formula: C4H7I2O
Atoms
  Index Symbol   x (angstrom)   y (angstrom)   z (angstrom)
      1      H     0.16935826    -1.78416459     0.41945523
      2      C    -0.74161275     0.19093330     0.86060339
      3      C     0.30973215    -0.70613514     0.32428313
      4      C     1.51068459    -0.27309531    -0.32762197
      5      O     1.83590492     0.91094034    -0.51117744
      6      H    -0.43886202     1.23283153     0.73121846
      7      H    -1.42976218    -1.12273564     2.48081835
      8      C    -1.09561634    -0.09010778     2.33557725
      9      H    -0.23196175     0.08319165     2.98449186
     10      H    -1.90244150     0.57481883     2.65890044
     11      H    -1.65273261     0.04588299     0.25803217
     12      H     2.17835603    -1.08479643    -0.68428772
     13      I     1.75845269     4.28273272     0.02655038
     14      I     1.71159030     6.94163771     0.46203940
 
Total System Charge             0.00000
 
 *** GOStep15 ***

 Energy gradients wrt nuclear displacements
 ==========================================

     Atom      Cartesian (a.u./angstrom)
                 X         Y         Z
 ----------------------------------------
     1 H     0.000004 -0.000060  0.000015
     2 C    -0.001727  0.000139 -0.002323
     3 C     0.000768  0.000472  0.000056
     4 C     0.000343 -0.002171 -0.000431
     5 O     0.000058  0.000237 -0.000151
     6 H     0.000191 -0.000144  0.000431
     7 H    -0.000073 -0.000009  0.000018
     8 C     0.000183 -0.000204  0.001042
     9 H    -0.000044  0.000016 -0.000099
    10 H    -0.000058 -0.000001 -0.000108
    11 H     0.001085  0.000109  0.000887
    12 H    -0.000761  0.001268  0.000520
    13 I     0.000036  0.000181  0.000202
    14 I    -0.000006  0.000166 -0.000060
 ----------------------------------------
 Mulliken charges used for AMS results%charges...

 dE(predicted):    -0.17870E-04, dE(actual):    -0.20424E-04, Trust radius:    0.100663, all in a.u.
 
----------------------------------------------------------------------
Geometry Convergence after Step  15       (Hartree/Angstrom,Angstrom)
----------------------------------------------------------------------
current energy                               -2.47314911 Hartree
energy change                      -0.00002042     0.00014000    T
constrained gradient max            0.00231913     0.00100000    F
constrained gradient rms            0.00069511     0.00066667    F
gradient max                        0.00232122
gradient rms                        0.00069511
cart. step max                      0.02579210     0.01000000    F
cart. step rms                      0.00923675     0.00666667    F
 
 
--------
Geometry
--------
Formula: C4H7I2O
Atoms
  Index Symbol   x (angstrom)   y (angstrom)   z (angstrom)
      1      H     0.16471451    -1.78599147     0.42262832
      2      C    -0.73627856     0.19506002     0.85798397
      3      C     0.31007849    -0.70895385     0.32412181
      4      C     1.51300965    -0.28336235    -0.32963954
      5      O     1.84256811     0.89845572    -0.51786375
      6      H    -0.42941868     1.23510552     0.72284899
      7      H    -1.42973023    -1.10844461     2.48325219
      8      C    -1.09117628    -0.07789221     2.33366958
      9      H    -0.22669132     0.09409873     2.98192441
     10      H    -1.89484801     0.59196413     2.65456165
     11      H    -1.64829028     0.05144069     0.25612268
     12      H     2.17494175    -1.09969009    -0.68668435
     13      I     1.74641242     4.27285869     0.02849723
     14      I     1.68579820     6.92728523     0.48745975
 
Total System Charge             0.00000
 
 *** GOStep16 ***

 Energy gradients wrt nuclear displacements
 ==========================================

     Atom      Cartesian (a.u./angstrom)
                 X         Y         Z
 ----------------------------------------
     1 H     0.000035 -0.000033 -0.000000
     2 C    -0.001387 -0.000093 -0.001606
     3 C     0.000242  0.000423 -0.000089
     4 C     0.001187 -0.001553  0.000005
     5 O    -0.000333 -0.000211 -0.000193
     6 H     0.000145 -0.000003  0.000225
     7 H    -0.000021  0.000005 -0.000012
     8 C     0.000091 -0.000115  0.000610
     9 H    -0.000026  0.000008 -0.000050
    10 H    -0.000014 -0.000004 -0.000090
    11 H     0.001054  0.000111  0.000774
    12 H    -0.000967  0.001124  0.000299
    13 I    -0.000003  0.000291  0.000162
    14 I    -0.000004  0.000050 -0.000035
 ----------------------------------------
 Mulliken charges used for AMS results%charges...

 dE(predicted):    -0.30512E-05, dE(actual):    -0.18322E-05, Trust radius:    0.100663, all in a.u.
 
----------------------------------------------------------------------
Geometry Convergence after Step  16       (Hartree/Angstrom,Angstrom)
----------------------------------------------------------------------
current energy                               -2.47315095 Hartree
energy change                      -0.00000183     0.00014000    T
constrained gradient max            0.00160296     0.00100000    F
constrained gradient rms            0.00056426     0.00066667    T
gradient max                        0.00160438
gradient rms                        0.00056426
cart. step max                      0.00855732     0.01000000    T
cart. step rms                      0.00249961     0.00666667    T
 
 
--------
Geometry
--------
Formula: C4H7I2O
Atoms
  Index Symbol   x (angstrom)   y (angstrom)   z (angstrom)
      1      H     0.16572043    -1.78614578     0.42181977
      2      C    -0.73704519     0.19387997     0.85929072
      3      C     0.30989446    -0.70880087     0.32448344
      4      C     1.51286917    -0.28077590    -0.32819417
      5      O     1.84059562     0.90169339    -0.51493028
      6      H    -0.43086020     1.23425330     0.72440399
      7      H    -1.43036682    -1.11159677     2.48237410
      8      C    -1.09240427    -0.08065419     2.33400843
      9      H    -0.22838082     0.09084306     2.98308083
     10      H    -1.89651856     0.58830585     2.65569480
     11      H    -1.64883959     0.05035130     0.25655854
     12      H     2.17603812    -1.09587717    -0.68578269
     13      I     1.74733535     4.27657435     0.01993991
     14      I     1.69305207     6.92988364     0.48613555
 
Total System Charge             0.00000
 
 *** GOStep17 ***

 Energy gradients wrt nuclear displacements
 ==========================================

     Atom      Cartesian (a.u./angstrom)
                 X         Y         Z
 ----------------------------------------
     1 H     0.000032 -0.000093  0.000009
     2 C    -0.001109 -0.000242 -0.000918
     3 C    -0.000094  0.000369 -0.000054
     4 C     0.001504 -0.001326 -0.000067
     5 O    -0.000405 -0.000264 -0.000134
     6 H     0.000142  0.000060  0.000078
     7 H     0.000007 -0.000006 -0.000005
     8 C     0.000102 -0.000020  0.000157
     9 H    -0.000027 -0.000013 -0.000007
    10 H    -0.000006 -0.000005 -0.000039
    11 H     0.000858  0.000105  0.000600
    12 H    -0.000996  0.001091  0.000293
    13 I    -0.000014  0.000283  0.000083
    14 I     0.000006  0.000059  0.000005
 ----------------------------------------
 Mulliken charges used for AMS results%charges...

 dE(predicted):    -0.11174E-05, dE(actual):    -0.16622E-05, Trust radius:    0.100663, all in a.u.
 
----------------------------------------------------------------------
Geometry Convergence after Step  17       (Hartree/Angstrom,Angstrom)
----------------------------------------------------------------------
current energy                               -2.47315261 Hartree
energy change                      -0.00000166     0.00014000    T
constrained gradient max            0.00149786     0.00100000    F
constrained gradient rms            0.00049045     0.00066667    T
gradient max                        0.00149954
gradient rms                        0.00049045
cart. step max                      0.00475292     0.01000000    T
cart. step rms                      0.00138591     0.00666667    T
 
 
--------
Geometry
--------
Formula: C4H7I2O
Atoms
  Index Symbol   x (angstrom)   y (angstrom)   z (angstrom)
      1      H     0.16430081    -1.78581052     0.42024089
      2      C    -0.73654238     0.19479472     0.85980642
      3      C     0.30956391    -0.70846035     0.32415459
      4      C     1.51337683    -0.28089664    -0.32752326
      5      O     1.84241258     0.90144312    -0.51289122
      6      H    -0.42878728     1.23489077     0.72610034
      7      H    -1.43182593    -1.11167207     2.48103293
      8      C    -1.09235329    -0.08101660     2.33385827
      9      H    -0.22820653     0.08825701     2.98338723
     10      H    -1.89552623     0.58858126     2.65665626
     11      H    -1.64843712     0.05334925     0.25652460
     12      H     2.17648271    -1.09604958    -0.68470484
     13      I     1.74436792     4.27604269     0.01518698
     14      I     1.69226376     6.92848112     0.48705375
 
Total System Charge             0.00000
 
 *** GOStep18 ***

 Energy gradients wrt nuclear displacements
 ==========================================

     Atom      Cartesian (a.u./angstrom)
                 X         Y         Z
 ----------------------------------------
     1 H     0.000025 -0.000140  0.000005
     2 C    -0.001156 -0.000313 -0.000606
     3 C    -0.000135  0.000375  0.000036
     4 C     0.001553 -0.001443 -0.000278
     5 O    -0.000326 -0.000237 -0.000084
     6 H     0.000182  0.000075  0.000047
     7 H     0.000002 -0.000027  0.000022
     8 C     0.000189  0.000071 -0.000146
     9 H    -0.000033 -0.000029  0.000027
    10 H    -0.000020 -0.000010  0.000007
    11 H     0.000748  0.000114  0.000528
    12 H    -0.001008  0.001217  0.000377
    13 I    -0.000041  0.000267  0.000029
    14 I     0.000019  0.000079  0.000035
 ----------------------------------------
 Mulliken charges used for AMS results%charges...
 
----------------------------------------------------------------------
Geometry Convergence after Step  18       (Hartree/Angstrom,Angstrom)
----------------------------------------------------------------------
current energy                               -2.47315306 Hartree
energy change                      -0.00000045     0.00014000    T
constrained gradient max            0.00154735     0.00100000    F
constrained gradient rms            0.00049772     0.00066667    T
gradient max                        0.00154856
gradient rms                        0.00049772
cart. step max                      0.00343412     0.01000000    T
cart. step rms                      0.00129641     0.00666667    T
 
 
--------
Geometry
--------
Formula: C4H7I2O
Atoms
  Index Symbol   x (angstrom)   y (angstrom)   z (angstrom)
      1      H     0.16313443    -1.78512494     0.41859183
      2      C    -0.73613150     0.19573496     0.86050186
      3      C     0.30935843    -0.70778825     0.32386516
      4      C     1.51376170    -0.28062361    -0.32691579
      5      O     1.84410095     0.90158371    -0.51100230
      6      H    -0.42705110     1.23566951     0.72873173
      7      H    -1.43347723    -1.11254008     2.47941611
      8      C    -1.09261324    -0.08207996     2.33390819
      9      H    -0.22843936     0.08499429     2.98398845
     10      H    -1.89503356     0.58793868     2.65776309
     11      H    -1.64798275     0.05638340     0.25655932
     12      H     2.17674868    -1.09594531    -0.68402219
     13      I     1.74294792     4.27582974     0.01175286
     14      I     1.69176640     6.92790203     0.48574460
 
Total System Charge             0.00000
 
 *** GOStep19 ***

 Energy gradients wrt nuclear displacements
 ==========================================

     Atom      Cartesian (a.u./angstrom)
                 X         Y         Z
 ----------------------------------------
     1 H     0.000028 -0.000136 -0.000003
     2 C    -0.001220 -0.000283 -0.000515
     3 C    -0.000043  0.000359  0.000055
     4 C     0.001387 -0.001488 -0.000341
     5 O    -0.000243 -0.000208 -0.000062
     6 H     0.000198  0.000051  0.000072
     7 H    -0.000015 -0.000042  0.000044
     8 C     0.000256  0.000113 -0.000263
     9 H    -0.000033 -0.000032  0.000043
    10 H    -0.000034 -0.000014  0.000029
    11 H     0.000682  0.000112  0.000489
    12 H    -0.000932  0.001221  0.000402
    13 I    -0.000056  0.000280  0.000001
    14 I     0.000027  0.000068  0.000049
 ----------------------------------------
 Mulliken charges used for AMS results%charges...
 
----------------------------------------------------------------------
Geometry Convergence after Step  19       (Hartree/Angstrom,Angstrom)
----------------------------------------------------------------------
current energy                               -2.47315355 Hartree
energy change                      -0.00000049     0.00014000    T
constrained gradient max            0.00149458     0.00100000    F
constrained gradient rms            0.00048499     0.00066667    T
gradient max                        0.00149467
gradient rms                        0.00048499
cart. step max                      0.00848729     0.01000000    T
cart. step rms                      0.00332453     0.00666667    T
 
 
--------
Geometry
--------
Formula: C4H7I2O
Atoms
  Index Symbol   x (angstrom)   y (angstrom)   z (angstrom)
      1      H     0.15999913    -1.78316525     0.41431511
      2      C    -0.73467243     0.19840775     0.86240974
      3      C     0.30898791    -0.70593056     0.32316048
      4      C     1.51477686    -0.28003334    -0.32553833
      5      O     1.84863768     0.90177563    -0.50624148
      6      H    -0.42221629     1.23792959     0.73588497
      7      H    -1.43790101    -1.11477292     2.47500305
      8      C    -1.09338023    -0.08484114     2.33418498
      9      H    -0.22927240     0.07650700     2.98581512
     10      H    -1.89390702     0.58632978     2.66041991
     11      H    -1.64625538     0.06454492     0.25673600
     12      H     2.17666663    -1.09607277    -0.68350028
     13      I     1.74068572     4.27466514     0.00580792
     14      I     1.68894061     6.92659034     0.48042574
 
Total System Charge             0.00000
 
 *** GOStep20 ***

 Energy gradients wrt nuclear displacements
 ==========================================

     Atom      Cartesian (a.u./angstrom)
                 X         Y         Z
 ----------------------------------------
     1 H     0.000038 -0.000100 -0.000017
     2 C    -0.001354 -0.000165 -0.000501
     3 C     0.000207  0.000313  0.000031
     4 C     0.000966 -0.001526 -0.000344
     5 O    -0.000104 -0.000145 -0.000037
     6 H     0.000207 -0.000005  0.000141
     7 H    -0.000052 -0.000062  0.000079
     8 C     0.000355  0.000143 -0.000344
     9 H    -0.000029 -0.000029  0.000054
    10 H    -0.000057 -0.000020  0.000051
    11 H     0.000622  0.000101  0.000455
    12 H    -0.000756  0.001143  0.000405
    13 I    -0.000080  0.000315 -0.000039
    14 I     0.000037  0.000036  0.000066
 ----------------------------------------
 Mulliken charges used for AMS results%charges...

 dE(predicted):    -0.74860E-06, dE(actual):    -0.11401E-05, Trust radius:    0.100663, all in a.u.
 
----------------------------------------------------------------------
Geometry Convergence after Step  20       (Hartree/Angstrom,Angstrom)
----------------------------------------------------------------------
current energy                               -2.47315469 Hartree
energy change                      -0.00000114     0.00014000    T
constrained gradient max            0.00153256     0.00100000    F
constrained gradient rms            0.00045744     0.00066667    T
gradient max                        0.00153265
gradient rms                        0.00045744
cart. step max                      0.01669855     0.01000000    F
cart. step rms                      0.00669431     0.00666667    F
 
 
--------
Geometry
--------
Formula: C4H7I2O
Atoms
  Index Symbol   x (angstrom)   y (angstrom)   z (angstrom)
      1      H     0.15344986    -1.77917470     0.40570690
      2      C    -0.73113999     0.20396728     0.86636453
      3      C     0.30837670    -0.70224312     0.32178250
      4      C     1.51686891    -0.27910013    -0.32307386
      5      O     1.85790206     0.90182297    -0.49664869
      6      H    -0.41190594     1.24254060     0.75013919
      7      H    -1.44682286    -1.11875817     2.46597615
      8      C    -1.09492197    -0.09001764     2.33483903
      9      H    -0.23115959     0.05980845     2.98967704
     10      H    -1.89165206     0.58360519     2.66537214
     11      H    -1.64205651     0.08119419     0.25731745
     12      H     2.17547820    -1.09675479    -0.68419679
     13      I     1.73775920     4.27118346    -0.00213754
     14      I     1.68091376     6.92386058     0.46776489
 
Total System Charge             0.00000
 
 *** GOStep21 ***

 Energy gradients wrt nuclear displacements
 ==========================================

     Atom      Cartesian (a.u./angstrom)
                 X         Y         Z
 ----------------------------------------
     1 H     0.000047 -0.000037 -0.000028
     2 C    -0.001514  0.000037 -0.000618
     3 C     0.000582  0.000252 -0.000054
     4 C     0.000352 -0.001514 -0.000270
     5 O     0.000054 -0.000067 -0.000010
     6 H     0.000202 -0.000082  0.000235
     7 H    -0.000095 -0.000075  0.000113
     8 C     0.000443  0.000124 -0.000306
     9 H    -0.000022 -0.000021  0.000054
    10 H    -0.000082 -0.000021  0.000064
    11 H     0.000599  0.000078  0.000447
    12 H    -0.000505  0.000974  0.000375
    13 I    -0.000107  0.000355 -0.000087
    14 I     0.000047 -0.000002  0.000084
 ----------------------------------------
 Mulliken charges used for AMS results%charges...

 dE(predicted):    -0.13275E-05, dE(actual):    -0.21389E-05, Trust radius:    0.100663, all in a.u.
 
----------------------------------------------------------------------
Geometry Convergence after Step  21       (Hartree/Angstrom,Angstrom)
----------------------------------------------------------------------
current energy                               -2.47315683 Hartree
energy change                      -0.00000214     0.00014000    T
constrained gradient max            0.00152042     0.00100000    F
constrained gradient rms            0.00043895     0.00066667    T
gradient max                        0.00152051
gradient rms                        0.00043895
cart. step max                      0.03923324     0.01000000    F
cart. step rms                      0.01554182     0.00666667    F
 
 
--------
Geometry
--------
Formula: C4H7I2O
Atoms
  Index Symbol   x (angstrom)   y (angstrom)   z (angstrom)
      1      H     0.13756289    -1.76978658     0.38588672
      2      C    -0.72172905     0.21726858     0.87550599
      3      C     0.30708510    -0.69396979     0.31856842
      4      C     1.52190176    -0.27804863    -0.31807143
      5      O     1.88003152     0.90031384    -0.47476965
      6      H    -0.38648587     1.25293418     0.78204717
      7      H    -1.46720488    -1.12542551     2.44509476
      8      C    -1.09803323    -0.10014896     2.33612122
      9      H    -0.23546245     0.02293560     2.99805444
     10      H    -1.88568886     0.57953200     2.67593748
     11      H    -1.63094330     0.12042743     0.25925535
     12      H     2.17113463    -1.09969799    -0.68835466
     13      I     1.73233192     4.26007300    -0.01427236
     14      I     1.65658959     6.91552700     0.43787948
 
Total System Charge             0.00000
 
 *** GOStep22 ***

 Energy gradients wrt nuclear displacements
 ==========================================

     Atom      Cartesian (a.u./angstrom)
                 X         Y         Z
 ----------------------------------------
     1 H     0.000046  0.000062 -0.000032
     2 C    -0.001656  0.000375 -0.000911
     3 C     0.001135  0.000154 -0.000229
     4 C    -0.000582 -0.001385 -0.000111
     5 O     0.000274  0.000039  0.000052
     6 H     0.000173 -0.000197  0.000370
     7 H    -0.000148 -0.000075  0.000132
     8 C     0.000496  0.000021 -0.000078
     9 H    -0.000011 -0.000001  0.000034
    10 H    -0.000108 -0.000013  0.000065
    11 H     0.000603  0.000030  0.000463
    12 H    -0.000132  0.000648  0.000290
    13 I    -0.000147  0.000386 -0.000156
    14 I     0.000056 -0.000045  0.000112
 ----------------------------------------
 Mulliken charges used for AMS results%charges...

 dE(predicted):    -0.29779E-05, dE(actual):    -0.48712E-05, Trust radius:    0.100663, all in a.u.
 
----------------------------------------------------------------------
Geometry Convergence after Step  22       (Hartree/Angstrom,Angstrom)
----------------------------------------------------------------------
current energy                               -2.47316170 Hartree
energy change                      -0.00000487     0.00014000    T
constrained gradient max            0.00165797     0.00100000    F
constrained gradient rms            0.00046968     0.00066667    T
gradient max                        0.00165788
gradient rms                        0.00046968
cart. step max                      0.02833726     0.01000000    F
cart. step rms                      0.01127672     0.00666667    F
 
 
--------
Geometry
--------
Formula: C4H7I2O
Atoms
  Index Symbol   x (angstrom)   y (angstrom)   z (angstrom)
      1      H     0.12576268    -1.76305040     0.37240833
      2      C    -0.71379481     0.22712840     0.88198886
      3      C     0.30628887    -0.68841794     0.31631639
      4      C     1.52542219    -0.27849645    -0.31567647
      5      O     1.89650738     0.89743468    -0.46000946
      6      H    -0.36708730     1.26017224     0.80336365
      7      H    -1.48141712    -1.12754714     2.43050995
      8      C    -1.09983472    -0.10534679     2.33688430
      9      H    -0.23849623    -0.00117034     3.00363007
     10      H    -1.88079988     0.57907541     2.68247801
     11      H    -1.62177511     0.14876469     0.26099194
     12      H     2.16634270    -1.10349411    -0.69414482
     13      I     1.73172330     4.24937258    -0.01624283
     14      I     1.63224782     6.90750932     0.41638500
 
Total System Charge             0.00000
 
 *** GOStep23 ***

 Energy gradients wrt nuclear displacements
 ==========================================

     Atom      Cartesian (a.u./angstrom)
                 X         Y         Z
 ----------------------------------------
     1 H     0.000035  0.000102 -0.000011
     2 C    -0.001335  0.000508 -0.000998
     3 C     0.001237  0.000076 -0.000294
     4 C    -0.001014 -0.000975 -0.000025
     5 O     0.000327  0.000030  0.000114
     6 H     0.000096 -0.000226  0.000372
     7 H    -0.000138 -0.000048  0.000097
     8 C     0.000362 -0.000087  0.000201
     9 H     0.000001  0.000017 -0.000008
    10 H    -0.000091 -0.000004  0.000032
    11 H     0.000508 -0.000014  0.000399
    12 H     0.000108  0.000299  0.000165
    13 I    -0.000134  0.000365 -0.000158
    14 I     0.000039 -0.000042  0.000112
 ----------------------------------------
 Mulliken charges used for AMS results%charges...

 dE(predicted):    -0.27517E-05, dE(actual):    -0.49014E-05, Trust radius:    0.100663, all in a.u.
 
----------------------------------------------------------------------
Geometry Convergence after Step  23       (Hartree/Angstrom,Angstrom)
----------------------------------------------------------------------
current energy                               -2.47316660 Hartree
energy change                      -0.00000490     0.00014000    T
constrained gradient max            0.00133750     0.00100000    F
constrained gradient rms            0.00043442     0.00066667    T
gradient max                        0.00133739
gradient rms                        0.00043442
cart. step max                      0.07864683     0.01000000    F
cart. step rms                      0.03165846     0.00666667    F
 
 
--------
Geometry
--------
Formula: C4H7I2O
Atoms
  Index Symbol   x (angstrom)   y (angstrom)   z (angstrom)
      1      H     0.09219371    -1.74310575     0.33423256
      2      C    -0.69092831     0.25424769     0.89995171
      3      C     0.30367790    -0.67294900     0.30972575
      4      C     1.53528022    -0.28008200    -0.30916816
      5      O     1.94101860     0.88794472    -0.41978817
      6      H    -0.31216498     1.27818179     0.86048155
      7      H    -1.51923136    -1.12912206     2.39012880
      8      C    -1.10401712    -0.11725504     2.33811817
      9      H    -0.24712193    -0.06537051     3.01656708
     10      H    -1.86604860     0.57979932     2.69996137
     11      H    -1.59475852     0.22741152     0.26779380
     12      H     2.15210097    -1.11278464    -0.71142870
     13      I     1.73260122     4.21514545    -0.01276879
     14      I     1.55848798     6.87987268     0.35507596
 
Total System Charge             0.00000
 
 *** GOStep24 ***

 Energy gradients wrt nuclear displacements
 ==========================================

     Atom      Cartesian (a.u./angstrom)
                 X         Y         Z
 ----------------------------------------
     1 H    -0.000026  0.000092  0.000050
     2 C    -0.000304  0.000474 -0.000969
     3 C     0.000769  0.000000 -0.000322
     4 C    -0.000894 -0.000085  0.000140
     5 O     0.000169 -0.000070  0.000159
     6 H    -0.000045 -0.000160  0.000237
     7 H    -0.000037  0.000031 -0.000031
     8 C    -0.000087 -0.000301  0.000745
     9 H     0.000015  0.000026 -0.000097
    10 H    -0.000010  0.000013 -0.000055
    11 H     0.000284 -0.000087  0.000229
    12 H     0.000243 -0.000181 -0.000079
    13 I    -0.000063  0.000265 -0.000090
    14 I    -0.000015 -0.000017  0.000084
 ----------------------------------------
 Mulliken charges used for AMS results%charges...

 dE(predicted):    -0.80449E-05, dE(actual):    -0.25929E-05, Trust radius:    0.100663, all in a.u.
 
----------------------------------------------------------------------
Geometry Convergence after Step  24       (Hartree/Angstrom,Angstrom)
----------------------------------------------------------------------
current energy                               -2.47316920 Hartree
energy change                      -0.00000259     0.00014000    T
constrained gradient max            0.00096790     0.00100000    T
constrained gradient rms            0.00030562     0.00066667    T
gradient max                        0.00096632
gradient rms                        0.00030562
cart. step max                      0.02664251     0.01000000    F
cart. step rms                      0.00790842     0.00666667    F
 
 
--------
Geometry
--------
Formula: C4H7I2O
Atoms
  Index Symbol   x (angstrom)   y (angstrom)   z (angstrom)
      1      H     0.08336323    -1.73935649     0.32653170
      2      C    -0.68482843     0.26103300     0.90205201
      3      C     0.30275716    -0.67062332     0.30772181
      4      C     1.53775746    -0.28369433    -0.30896303
      5      O     1.95224234     0.88176282    -0.41338165
      6      H    -0.29825910     1.28231491     0.86767513
      7      H    -1.52545024    -1.12382197     2.38329936
      8      C    -1.10283810    -0.11473950     2.33743866
      9      H    -0.24668944    -0.07300185     3.01755489
     10      H    -1.86018574     0.58600205     2.70185812
     11      H    -1.58818647     0.24483874     0.26856310
     12      H     2.14765362    -1.11872056    -0.71617185
     13      I     1.73190802     4.20209621    -0.00207519
     14      I     1.53184547     6.86784447     0.34677988
 
Total System Charge             0.00000
 
 *** GOStep25 ***

 Energy gradients wrt nuclear displacements
 ==========================================

     Atom      Cartesian (a.u./angstrom)
                 X         Y         Z
 ----------------------------------------
     1 H    -0.000025  0.000020  0.000043
     2 C    -0.000033  0.000201 -0.000683
     3 C     0.000254  0.000055 -0.000134
     4 C    -0.000212 -0.000064 -0.000007
     5 O     0.000017 -0.000143  0.000117
     6 H    -0.000028 -0.000042  0.000101
     7 H     0.000019  0.000030 -0.000063
     8 C    -0.000163 -0.000234  0.000613
     9 H     0.000008  0.000004 -0.000078
    10 H     0.000026  0.000002 -0.000065
    11 H     0.000189 -0.000048  0.000150
    12 H     0.000016 -0.000011 -0.000035
    13 I    -0.000025  0.000205 -0.000002
    14 I    -0.000043  0.000024  0.000043
 ----------------------------------------
 Mulliken charges used for AMS results%charges...

 dE(predicted):    -0.17352E-05, dE(actual):     0.15228E-05, Trust radius:    0.020000, all in a.u.
 
---------------------------------------------------------
Geometry Convergence after Step  25       ** CONVERGED **
---------------------------------------------------------
current energy                               -2.47316767 Hartree
energy change                       0.00000152     0.00014000    T
constrained gradient max            0.00068127     0.00100000    T
constrained gradient rms            0.00017373     0.00066667    T
gradient max                        0.00068016
gradient rms                        0.00017374
cart. step max                      0.00542969     0.01000000    T
cart. step rms                      0.00207997     0.00666667    T
 
Geometry optimization converged

Optimized geometry:
 
--------
Geometry
--------
Formula: C4H7I2O
Atoms
  Index Symbol   x (angstrom)   y (angstrom)   z (angstrom)
      1      H     0.08336323    -1.73935649     0.32653170
      2      C    -0.68482843     0.26103300     0.90205201
      3      C     0.30275716    -0.67062332     0.30772181
      4      C     1.53775746    -0.28369433    -0.30896303
      5      O     1.95224234     0.88176282    -0.41338165
      6      H    -0.29825910     1.28231491     0.86767513
      7      H    -1.52545024    -1.12382197     2.38329936
      8      C    -1.10283810    -0.11473950     2.33743866
      9      H    -0.24668944    -0.07300185     3.01755489
     10      H    -1.86018574     0.58600205     2.70185812
     11      H    -1.58818647     0.24483874     0.26856310
     12      H     2.14765362    -1.11872056    -0.71617185
     13      I     1.73190802     4.20209621    -0.00207519
     14      I     1.53184547     6.86784447     0.34677988
 
Total System Charge             0.00000
 
Performing a single point calculation on the final geometry ...

 *** adf ***



 ===========================
 A T T A C H E D   F I L E S
 ===========================
  
 Restart
 /scratch/3976/amstmp_13.achiral_catalyst.H_H_I2.P1_kid0.356208750/GOStep25.rkf
 *** GOStep25 ***



 ===============================
 M O D E L   P A R A M E T E R S
 ===============================
  
 DENSITY FUNCTIONAL POTENTIAL (scf)
    LDA:                               Exchange only                           == Not Default ==
    Gradient Corrections:              OPTX LYP                                == Not Default ==

 SPIN  (restricted / unrestr.)
    Molecule:                          UNrestricted                            == Not Default ==
    Fragments:                         Restricted                               

 OTHER ASPECTS
    Relativistic Corrections:          scalar (ZORA,MAPA)                       

    Nuclear Charge Density Model:      Point Charge Nuclei                      
    Core Treatment:                    Frozen Orbital(s)                        

    Hyperfine or Zeeman Interaction:   ---                                      



 ===============
 G E O M E T R Y  ***  3D  Molecule  ***
 ===============
  

 ATOMS
 =====                            X Y Z                    CHARGE
                                (Angstrom)             Nucl     +Core       At.Mass
                       --------------------------    ----------------       -------
    1  H               0.0834   -1.7394    0.3265      1.00      1.00        1.0078
    2  C              -0.6848    0.2610    0.9021      6.00      6.00       12.0000
    3  C               0.3028   -0.6706    0.3077      6.00      6.00       12.0000
    4  C               1.5378   -0.2837   -0.3090      6.00      6.00       12.0000
    5  O               1.9522    0.8818   -0.4134      8.00      8.00       15.9949
    6  H              -0.2983    1.2823    0.8677      1.00      1.00        1.0078
    7  H              -1.5255   -1.1238    2.3833      1.00      1.00        1.0078
    8  C              -1.1028   -0.1147    2.3374      6.00      6.00       12.0000
    9  H              -0.2467   -0.0730    3.0176      1.00      1.00        1.0078
   10  H              -1.8602    0.5860    2.7019      1.00      1.00        1.0078
   11  H              -1.5882    0.2448    0.2686      1.00      1.00        1.0078
   12  H               2.1477   -1.1187   -0.7162      1.00      1.00        1.0078
   13  I               1.7319    4.2021   -0.0021     53.00     53.00      126.9045
   14  I               1.5318    6.8678    0.3468     53.00     53.00      126.9045


 FRAGMENTS
 =========                                     Atoms in this Fragment     Cart. coord.s (Angstrom)
                                               -------------------------------------------------------
    1  H                                                 1  H            0.0834   -1.7394    0.3265
    2  H                                                 6  H           -0.2983    1.2823    0.8677
    3  H                                                 7  H           -1.5255   -1.1238    2.3833
    4  H                                                 9  H           -0.2467   -0.0730    3.0176
    5  H                                                10  H           -1.8602    0.5860    2.7019
    6  H                                                11  H           -1.5882    0.2448    0.2686
    7  H                                                12  H            2.1477   -1.1187   -0.7162
    8  C                                                 2  C           -0.6848    0.2610    0.9021
    9  C                                                 3  C            0.3028   -0.6706    0.3077
   10  C                                                 4  C            1.5378   -0.2837   -0.3090
   11  C                                                 8  C           -1.1028   -0.1147    2.3374
   12  O                                                 5  O            1.9522    0.8818   -0.4134
   13  I                                                13  I            1.7319    4.2021   -0.0021
   14  I                                                14  I            1.5318    6.8678    0.3468


 Interatomic Distance Matrix (Angstrom)
 --------------------------------------

   1)     0.000
   2)     2.219   0.000
   3)     1.091   1.482   0.000
   4)     2.154   2.589   1.434   0.000
   5)     3.303   3.012   2.377   1.241   0.000
   6)     3.093   1.093   2.119   2.685   2.620   0.000
   7)     2.683   2.195   2.803   4.164   4.893   3.097   0.000
   8)     2.844   1.542   2.531   3.742   4.230   2.182   1.095   0.000
   9)     3.182   2.186   2.829   3.781   4.185   2.542   1.772   1.094   0.000
  10)     3.851   2.174   3.463   4.622   4.932   2.508   1.771   1.094   1.771   0.000
  11)     2.595   1.103   2.101   3.222   3.661   1.760   2.520   2.155   3.075   2.472
          0.000
  12)     2.395   3.542   2.157   1.111   2.033   3.776   4.806   4.571   4.557   5.536
          4.097   0.000
  13)     6.175   4.711   5.087   4.500   3.353   3.661   6.683   5.670   5.595   5.770
          5.173   5.385   0.000
  14)     8.728   6.991   7.638   7.182   6.049   5.901   8.796   7.724   7.647   7.518
          7.322   8.080   2.696   0.000

 Min. Distance =    1.0912
 Max. Distance =    8.7955



 =====================================
 S Y M M E T R Y ,   E L E C T R O N S
 =====================================
  
 Symmetry: NOSYM

 Irreducible Representations, including subspecies
 -------------------------------------------------
 A


 Configuration of Valence Electrons
 ==================================
 ( determined in the SCF procedure )

 Total:   73 (Spin-A)  + 72 (Spin-B)

 Net Charge: 0 (Nuclei minus Electrons)
[...]
     3     C      -0.102961  -0.087282   0.017754
     4     C       0.051679   0.001010  -0.013924
     5     O       0.033592   0.051350  -0.015566
     6     H      -0.225934   0.176186   0.028633
     7     H      -0.071049  -0.038480   0.382964
     8     C      -0.033440  -0.077260  -0.004154
     9     H       0.062665   0.164569  -0.133539
    10     H       0.130362   0.137596  -0.070687
    11     H       0.139538  -0.256337  -0.112876
    12     H       0.147734   0.125143  -0.112298
    13     I       0.000007   0.000070  -0.000001
    14     I       0.000004  -0.000045  -0.000006
 
 Mode:    26      Frequency (cm-1):     1167.3638     Intensity (km/mol):        1.9657
 Index  Atom      ---- Displacements (x/y/z) ----
     1     H      -0.553300   0.227395   0.303528
     2     C      -0.001749  -0.176909  -0.031912
     3     C      -0.098158   0.129590   0.058248
     4     C       0.089906  -0.022360  -0.047176
     5     O      -0.004933   0.025652   0.004488
     6     H       0.349962  -0.310278  -0.126582
     7     H       0.078701   0.018277  -0.285364
     8     C       0.024701   0.063808   0.032130
     9     H      -0.014853  -0.184340   0.091504
    10     H      -0.126780  -0.125037   0.062213
    11     H       0.109867   0.086741  -0.207555
    12     H       0.060128  -0.040322  -0.043122
    13     I       0.000003  -0.000120  -0.000010
    14     I      -0.000007   0.000043   0.000008
 
 Mode:    27      Frequency (cm-1):     1229.5659     Intensity (km/mol):        1.5501
 Index  Atom      ---- Displacements (x/y/z) ----
     1     H       0.003911  -0.046697   0.023430
     2     C      -0.080311   0.021528   0.026372
     3     C       0.008800  -0.044997  -0.037243
     4     C      -0.023173   0.001501   0.019806
     5     O       0.007087   0.002012  -0.005087
     6     H      -0.205673   0.077697   0.287149
     7     H      -0.110163   0.096071  -0.163804
     8     C       0.094051   0.022704   0.028532
     9     H      -0.136054  -0.084222   0.321603
    10     H      -0.079789  -0.072000  -0.135235
    11     H       0.409439  -0.062114  -0.680524
    12     H       0.011254   0.045454  -0.017478
    13     I       0.000021   0.000069  -0.000003
    14     I      -0.000004  -0.000028  -0.000001
 
 Mode:    28      Frequency (cm-1):     1285.2814     Intensity (km/mol):        1.3793
 Index  Atom      ---- Displacements (x/y/z) ----
     1     H      -0.277184   0.046899   0.165370
     2     C       0.056096  -0.058660  -0.104601
     3     C       0.069202  -0.032111  -0.028931
     4     C      -0.048580   0.008453   0.022651
     5     O       0.008437   0.006981  -0.003205
     6     H      -0.375128   0.121562   0.693143
     7     H       0.111734   0.005898  -0.135483
     8     C      -0.013130   0.072949   0.017500
     9     H       0.021552  -0.165277  -0.008557
    10     H      -0.104555  -0.096703   0.144699
    11     H      -0.195589   0.096570   0.263758
    12     H      -0.075503  -0.012637   0.040700
    13     I       0.000040   0.000051  -0.000007
    14     I      -0.000011  -0.000016   0.000000
 
 Mode:    29      Frequency (cm-1):     1364.1363     Intensity (km/mol):        0.7729
 Index  Atom      ---- Displacements (x/y/z) ----
     1     H      -0.158102   0.021912   0.068106
     2     C      -0.015493   0.003399   0.022050
     3     C       0.045708  -0.020520  -0.023297
     4     C       0.007198  -0.028408  -0.006227
     5     O       0.005075   0.057082   0.003088
     6     H       0.027579  -0.016840  -0.151453
     7     H      -0.096783   0.076701   0.473082
     8     C       0.029193   0.015009  -0.104418
     9     H      -0.291093  -0.080597   0.327794
    10     H       0.008314  -0.241963   0.392705
    11     H      -0.020593   0.067398   0.026681
    12     H      -0.341594  -0.362691   0.146496
    13     I      -0.000013  -0.000092  -0.000006
    14     I       0.000003   0.000041   0.000005
 
 Mode:    30      Frequency (cm-1):     1374.9354     Intensity (km/mol):        2.4743
 Index  Atom      ---- Displacements (x/y/z) ----
     1     H      -0.044901  -0.036831   0.026443
     2     C      -0.017284   0.020540   0.012071
     3     C       0.014456  -0.039425  -0.011962
     4     C       0.036304  -0.046653  -0.024697
     5     O       0.005416   0.091101   0.006230
     6     H       0.015602   0.007076   0.011181
     7     H       0.021608  -0.043007  -0.330098
     8     C      -0.015822  -0.021817   0.068671
     9     H       0.200613   0.112558  -0.229362
    10     H       0.006581   0.172438  -0.284521
    11     H       0.016374  -0.028930  -0.033168
    12     H      -0.511007  -0.580861   0.215771
    13     I      -0.000009  -0.000112  -0.000002
    14     I       0.000001   0.000047   0.000002
 
 Mode:    31      Frequency (cm-1):     1416.9176     Intensity (km/mol):        3.7316
 Index  Atom      ---- Displacements (x/y/z) ----
     1     H       0.450592  -0.121967  -0.205439
     2     C       0.036904   0.030459  -0.076708
     3     C      -0.161241   0.015735   0.076315
     4     C       0.097500   0.013219  -0.049476
     5     O      -0.015471   0.002657   0.007812
     6     H       0.187865  -0.021231   0.534993
     7     H       0.019139   0.019093   0.114098
     8     C       0.009783   0.019281  -0.021650
     9     H      -0.088939  -0.080707   0.116922
    10     H      -0.012791  -0.069872   0.116366
    11     H      -0.012405  -0.506673   0.025667
    12     H      -0.094317  -0.191990   0.024300
    13     I      -0.000005  -0.000081   0.000011
    14     I       0.000000   0.000035  -0.000005
 
 Mode:    32      Frequency (cm-1):     1430.1827     Intensity (km/mol):       14.2918
 Index  Atom      ---- Displacements (x/y/z) ----
     1     H       0.218481  -0.070674  -0.153013
     2     C       0.070552  -0.056617  -0.001744
     3     C      -0.090947  -0.000105   0.053498
     4     C       0.062039   0.025784  -0.029812
     5     O      -0.012777  -0.009399   0.006280
     6     H      -0.616797   0.212138  -0.235499
     7     H       0.171059  -0.062936   0.077875
     8     C      -0.007951   0.010779   0.001999
     9     H      -0.031368  -0.175788   0.053453
    10     H       0.028108   0.063344  -0.046738
    11     H       0.101233   0.543912  -0.105074
    12     H      -0.069880  -0.118647   0.025606
    13     I       0.000004  -0.000033  -0.000020
    14     I       0.000002   0.000016   0.000009
 
 Mode:    33      Frequency (cm-1):     1461.8538     Intensity (km/mol):        5.6462
 Index  Atom      ---- Displacements (x/y/z) ----
     1     H      -0.040400   0.009120   0.025024
     2     C      -0.022530  -0.002161  -0.004936
     3     C       0.011865  -0.000900  -0.007014
     4     C      -0.007816  -0.004929   0.003650
     5     O       0.002203   0.003255  -0.000827
     6     H       0.049148  -0.030784   0.056441
     7     H       0.478271  -0.226233  -0.196379
     8     C      -0.042743  -0.018643  -0.018744
     9     H      -0.288601   0.090980   0.321038
    10     H       0.489136   0.450489   0.171050
    11     H       0.001729  -0.039225  -0.038513
    12     H       0.004522   0.010486  -0.003347
    13     I       0.000002   0.000009  -0.000001
    14     I      -0.000001  -0.000004  -0.000001
 
 Mode:    34      Frequency (cm-1):     1468.0960     Intensity (km/mol):        9.7522
 Index  Atom      ---- Displacements (x/y/z) ----
     1     H      -0.024308   0.003860   0.020614
     2     C      -0.029495   0.032770   0.013821
     3     C       0.021518  -0.005449  -0.012359
     4     C      -0.016030  -0.016361   0.006357
     5     O       0.005389   0.010882  -0.001685
     6     H       0.136675  -0.030338  -0.020908
     7     H       0.410007  -0.139078   0.365448
     8     C      -0.021812   0.044365   0.002547
     9     H       0.061923  -0.673888  -0.049552
    10     H      -0.132421   0.097229  -0.392320
    11     H      -0.000208  -0.100732  -0.017738
    12     H       0.008697   0.011069  -0.002527
    13     I      -0.000004   0.000008   0.000003
    14     I       0.000001  -0.000004  -0.000000
 
 Mode:    35      Frequency (cm-1):     1547.8920     Intensity (km/mol):      127.3687
 Index  Atom      ---- Displacements (x/y/z) ----
     1     H       0.417957  -0.039620  -0.227338
     2     C       0.034081  -0.032770  -0.022568
     3     C      -0.072571   0.069318   0.047334
     4     C      -0.166419  -0.459659   0.042405
     5     O       0.108083   0.287081  -0.028660
     6     H      -0.150224   0.031803   0.040194
     7     H      -0.032294   0.022564  -0.018155
     8     C       0.001476   0.007538  -0.003531
     9     H      -0.019275   0.033317   0.019422
    10     H      -0.004298  -0.048771   0.090726
    11     H      -0.004975   0.114488   0.031873
    12     H       0.494756   0.256607  -0.238517
    13     I       0.000039   0.000301   0.000002
    14     I       0.000002  -0.000130  -0.000011
 
 Mode:    36      Frequency (cm-1):     2873.4794     Intensity (km/mol):      142.8040
 Index  Atom      ---- Displacements (x/y/z) ----
     1     H      -0.003971  -0.054171  -0.002526
     2     C      -0.000470  -0.000145   0.000200
     3     C      -0.001064   0.002971   0.000823
     4     C       0.050866  -0.056370  -0.032632
     5     O      -0.001589  -0.003277   0.000525
     6     H       0.001590   0.011319   0.000967
     7     H      -0.000878  -0.002101   0.000024
     8     C       0.000138  -0.000056  -0.000110
     9     H       0.001535   0.000039   0.001072
    10     H      -0.001292   0.001308  -0.000210
    11     H       0.000042  -0.000866  -0.000899
    12     H      -0.561174   0.733152   0.370965
    13     I       0.000004   0.000018  -0.000000
    14     I      -0.000001  -0.000006   0.000000
 
 Mode:    37      Frequency (cm-1):     2937.1704     Intensity (km/mol):        6.8891
 Index  Atom      ---- Displacements (x/y/z) ----
     1     H      -0.002931  -0.012058   0.003449
     2     C      -0.059456   0.009414  -0.044710
     3     C      -0.001939   0.001515  -0.000163
     4     C       0.000338   0.000776  -0.000720
     5     O       0.000011  -0.000276   0.000045
     6     H      -0.072694  -0.145253  -0.008866
     7     H      -0.003333  -0.016164   0.001259
     8     C       0.004302  -0.000231   0.001113
     9     H      -0.037676  -0.002168  -0.030093
    10     H      -0.019383   0.020966   0.010821
    11     H       0.812454   0.022044   0.551014
    12     H      -0.001052   0.000259   0.001470
    13     I       0.000002   0.000001  -0.000002
    14     I      -0.000000  -0.000000   0.000001
 
 Mode:    38      Frequency (cm-1):     2997.6388     Intensity (km/mol):       27.1173
 Index  Atom      ---- Displacements (x/y/z) ----
     1     H      -0.004667  -0.016891   0.001641
     2     C       0.000722   0.001730  -0.000452
     3     C       0.000717   0.001105  -0.000319
     4     C       0.000117   0.000137  -0.000063
     5     O      -0.000056  -0.000123   0.000019
     6     H      -0.007195  -0.019054   0.001550
     7     H       0.238524   0.575057  -0.010231
     8     C      -0.014773  -0.015781   0.043703
     9     H      -0.442745  -0.027441  -0.332476
    10     H       0.378560  -0.360110  -0.169937
    11     H      -0.002422   0.000936  -0.002302
    12     H      -0.001867   0.001747   0.001041
    13     I       0.000001   0.000004   0.000000
    14     I      -0.000000  -0.000002  -0.000000
 
 Mode:    39      Frequency (cm-1):     3062.6999     Intensity (km/mol):        8.0008
 Index  Atom      ---- Displacements (x/y/z) ----
     1     H       0.020399   0.093571  -0.001478
     2     C       0.025487   0.054232   0.002785
     3     C      -0.001278  -0.007685   0.000364
     4     C       0.001036  -0.000243  -0.000638
     5     O       0.000094  -0.000256  -0.000059
     6     H      -0.249176  -0.659513   0.014333
     7     H       0.202945   0.488444  -0.017298
     8     C      -0.022043  -0.055920  -0.022950
     9     H       0.270776  -0.000196   0.206208
    10     H      -0.209862   0.176447   0.086610
    11     H      -0.067746   0.010136  -0.048394
    12     H      -0.007827   0.008594   0.004731
    13     I       0.000007   0.000009  -0.000003
    14     I       0.000000  -0.000000   0.000000
 
 Mode:    40      Frequency (cm-1):     3078.9744     Intensity (km/mol):       16.1300
 Index  Atom      ---- Displacements (x/y/z) ----
     1     H       0.018536   0.082327  -0.002318
     2     C       0.004746   0.017871  -0.001258
     3     C      -0.001408  -0.007177   0.000255
     4     C       0.000840  -0.000176  -0.000406
     5     O      -0.000020  -0.000142   0.000001
     6     H      -0.079294  -0.209251   0.005508
     7     H      -0.104096  -0.196423   0.005117
     8     C      -0.070550   0.055398  -0.006084
     9     H       0.411436   0.036079   0.327781
    10     H       0.535513  -0.503147  -0.258074
    11     H       0.012452   0.002862   0.009108
    12     H      -0.004234   0.004478   0.002216
    13     I       0.000002   0.000005  -0.000001
    14     I       0.000000  -0.000001   0.000000
 
 Mode:    41      Frequency (cm-1):     3081.3042     Intensity (km/mol):       10.2366
 Index  Atom      ---- Displacements (x/y/z) ----
     1     H       0.048799   0.218838  -0.005126
     2     C       0.025422   0.048251   0.004742
     3     C      -0.003931  -0.018743   0.000538
     4     C       0.001709  -0.000673  -0.000943
     5     O       0.000013  -0.000188  -0.000042
     6     H      -0.218981  -0.574673   0.015827
     7     H      -0.188924  -0.472927   0.021530
     8     C       0.049096   0.040844   0.026382
     9     H      -0.423106  -0.013363  -0.329496
    10     H       0.027912  -0.004128  -0.003241
    11     H      -0.096366   0.006493  -0.071235
    12     H      -0.011157   0.011994   0.006979
    13     I       0.000006   0.000010  -0.000002
    14     I       0.000000  -0.000001  -0.000000
 
 Mode:    42      Frequency (cm-1):     3102.6369     Intensity (km/mol):       29.8291
 Index  Atom      ---- Displacements (x/y/z) ----
     1     H       0.195018   0.941079  -0.018080
     2     C      -0.011157  -0.017167  -0.000808
     3     C      -0.017455  -0.080148   0.001818
     4     C       0.004386  -0.003770  -0.002728
     5     O       0.000073   0.001037   0.000071
     6     H       0.079939   0.215208  -0.003865
     7     H       0.038183   0.088430  -0.006390
     8     C      -0.003172  -0.008930  -0.002301
     9     H       0.026942  -0.000663   0.020584
    10     H      -0.024943   0.022132   0.009969
    11     H       0.039071  -0.003083   0.025821
    12     H      -0.028972   0.030576   0.018599
    13     I      -0.000001  -0.000000   0.000000
    14     I      -0.000001  -0.000002   0.000000

PES point character: Geometry corresponds to a local minimum on the PES.




 ============================
 Statistical Thermal Analysis  ***  ideal gas assumed  ***
 ============================
  
 Pressure:                  1.000000 atm.
 Temperature:             298.150000 K



 Moments of Inertia [amu*bohr^2] and principal axis
 ==================================================

         817.0133       7983.6288       8724.4482
 ------------------------------------------------
          -0.1759          0.7596          0.6262
          -0.9834         -0.1640         -0.0774
           0.0439         -0.6294          0.7758


 The rotational contribution to the molecular entropy includes
 a term, dependent on the symmetry number sigma. The results 
 reported below were computed using sigma = 1, determined from
 the point group symmetry of the input geometry (NOSYM). 
 If this is not the correct symmetry, try symmetrizing the molecule before
 running the calculation (note: linear molecules should be aligned along one
 of the Cartesian axes).
 Contributions from frequencies below 20 1/cm are not included in vibrational sums.
 Their contributions, if any, are reported separately.


     Temp                                                        Transl      Rotat     Vibrat     Total
     ----                                                        ------      -----     ------     -----

     298.15   Entropy (cal/mol-K):                               43.230     32.409     32.753    108.392
              Nuclear Internal Energy (kcal/mol):                 0.889      0.889     65.928     67.705
              Constant Volume Heat Capacity (cal/mol-K):          2.981      2.981     22.468     28.430
          (c) Constant Volume Heat Capacity (cal/mol-K):          2.981      2.981     20.463     26.425

 Contributions from frequencies below 20 1/cm
 Frequency (1/cm):                                   12.205    14.632
 Entropy (cal/mol-K):                                 7.615     7.255
 Nuclear Internal Energy (kcal/mol):                  0.593     0.593
 Constant Volume Heat Capacity (cal/mol-K):           1.987     1.986

       Summary of energy terms
                                                   hartree              eV         kcal/mol           kJ/mol
                                      --------------------     -----------       ----------      -----------
      Energy from Engine:               -2.473167672785337        -67.2983         -1551.94         -6493.30
      Nuclear Internal Energy:           0.107895391088288          2.9360            67.71           283.28
  (c) Nuclear Internal Energy:           0.106888481245958          2.9086            67.07           280.64
      Internal Energy U:                -2.365272281697049        -64.3623         -1484.23         -6210.02
      pV/n = RT:                         0.000944186013486          0.0257             0.59             2.48
      Enthalpy H:                       -2.364328095683563        -64.3366         -1483.64         -6207.54
      -T*S:                             -0.051500580066779         -1.4014           -32.32          -135.21
  (c) -T*S:                             -0.053056412631266         -1.4437           -33.29          -139.30
      Gibbs free energy:                -2.415828675750342        -65.7380         -1515.96         -6342.76
 
 
 
  (c) The properties marked with this symbol have been corrected using 'low vibrational frequency free rotor
      interpolation corrections'. For those terms all positive frequencies are used (also ones below 20 1/cm),
      but the contribution to the partition function of small vibrational frequencies is modified as described
      in the following paper:
      S. Grimme, 'Supramolecular Binding Thermodynamics by Dispersion-Corrected Density Functional Theory'
      (Chem. Eur. J. 2012, 18, 9955-9964)
      Configuration: Dampener Frequency          :   100.000 1/cm
                     Dampener Alpha              :     4.000
                     Averaging Moment of Inertia : 1.000E-44 kg m2

--------------
Atomic charges
--------------
  Index   Atom    Charge
      1      H   -0.2071
      2      C    0.3943
      3      C    0.2752
      4      C    0.5988
      5      O   -0.5148
      6      H   -0.1442
      7      H   -0.2142
      8      C    0.6397
      9      H   -0.1978
     10      H   -0.2040
     11      H   -0.1630
     12      H   -0.2560
     13      I    0.0398
     14      I   -0.0467


Dipole moment vector    (Debye):    -2.27442920   -3.26120374    0.95595944
              magnitude (Debye):     4.08929535


Final PES point is a local minimum. Geometry optimization successful!


AMS application finished. Exiting.
NORMAL TERMINATION
     Total cpu time:   20517.83
  Total system time:     166.68
 Total elapsed time:   41585.90
 WARNING: total elapsed time is much higher than the (CPU+system) time. 
 Make sure the machine is not oversubscribed and has enough memory, SCM_TMPDIR p
 oints to a fast file system, and the network is fast enough.
