

 Parallel Execution: Process Information
 ==============================================================================
 Rank   Node Name                              NodeID   MyNodeRank  NodeMaster
    0   node120                                   0          0          0
    1   node120                                   0          1         -1
    2   node120                                   0          2         -1
    3   node120                                   0          3         -1
 ==============================================================================


May use up to 122928MB of RAM as shared memory on node 0

 *******************************************************************************
 *                                                                             *
 *  --------------------------------                                           *
 *   Amsterdam Modeling Suite (AMS)              2021.102                      *
 *  --------------------------------                                           *
 *                                               r95042 2021-06-07             *
 *                                                                             *
 *                                                                             *
 *                              =================                              *
 *                              |               |                              *
 *                              |     A M S     |                              *
 *                              |               |                              *
 *                              =================                              *
 *                                                                             *
 *                                                                             *
 *   Online information and documentation:  https://www.scm.com/support/       *
 *   E-mail:  support@scm.com   info@scm.com                                   *
 *                                                                             *
 *   Scientific publications using AMS results must be properly referenced     *
 *   See the User Manuals (or the web site) for recommended citations          *
 *   The terms and conditions of the End User License Agreement apply to       *
 *   the use of AMS, https://www.scm.com/license-terms/                        *
 *                                                                             *
 **********************  x86_64_linux_intel / intelmpi  ************************
 
 Licensed to: VU/FEW (+ SARA) / ALGEMEEN / Amsterdam / THE NETHERLANDS
 SCM User ID: u7668
  
 AMS 2021.102  RunTime: Jan27-2022 12:32:13  ShM Nodes: 1  Procs: 4

 AMS jobname: 23.achiral_catalyst.H_Ph_BF3.Rsub_cat_complex
 AMS jobid  : 1588345625

 Start   directory: /scistor/tc/yhk800/MasterProject/calculations/achiral_catalyst_H_Ph_BF3/23.achiral_catalyst.H_Ph_BF3.Rsub_cat_complex/
 Results directory: /scistor/tc/yhk800/MasterProject/calculations/achiral_catalyst_H_Ph_BF3/23.achiral_catalyst.H_Ph_BF3.Rsub_cat_complex/
 Scratch directory: /scratch/5298/amstmp_23.achiral_catalyst.H_Ph_BF3.Rsub_cat_complex_kid0.1588345625/


 Communication costs MPI_COMM_WORLD:      0.035 usec per message,   0.0044 usec per 8-byte item
 Communication costs for intra-node:      0.004 usec per message,   0.0045 usec per 8-byte item

 RNG seed: -771567566 -2000082583 122326563 -596466575 -599418135 -980974548 893559745 -2131563838



                      ************************************************************************
                      *  ADF 2021.102  RunTime: Jan27-2022 12:32:14  ShM Nodes: 1  Procs: 4  *
                      ************************************************************************
  
       ***************************
       *  GEOMETRY OPTIMIZATION  *
       ***************************

Optimization Method                    Quasi Newton
Optimization Coordinates               Delocalized Coordinates
Optimize lattice                       F
 
 ------------------------------------------------------
 Convergence criteria (Hartree,Angstrom)
 ------------------------------------------------------
 Maximum gradient               0.001000000000
 Maximum rms gradient           0.000666666667
 Maximum step allowed           0.010000000000
 Maximum rms step allowed       0.006666666667
 Maximum energy change allowe   0.000220000000
 Maximum stress energy allowe   0.000500000000
 
Initial model Hessian                  Automatic Hessian
 
------------------------------------
Quasi-Newton Optimizer Parameters
------------------------------------
Hessian Update Method                  BFGS
Maximum number of steps                  250
First GDIIS cycle                          0
Maximum GDIIS vectors                      0
Trust radius (bohr)                        0.200000
Trust radius varies                        T
Constraints converged at all steps         T
Use projector                              T
 
 Rigid motions settings for: old optimizer
 Atomic rotations (x,y,z):     T T T
 Atomic translations (x,y,z):  T T T
 Tolerance:                   1.000000000000000E-006
 
--------
Geometry
--------
Formula: C9H8BF3O
Atoms
  Index Symbol   x (angstrom)   y (angstrom)   z (angstrom)
      1      H    -0.62056146    -0.03764738    -0.08023722
      2      C    -0.09659473    -2.02948020    -0.54883449
      3      C     0.18266548    -0.75219647    -0.26512258
      4      C     1.55928918    -0.22013974    -0.18291419
      5      O     1.86635738     0.93365884     0.07180470
      6      H     0.69695300    -2.74612423    -0.73626627
      7      C    -4.19306316    -3.45045331    -0.75693434
      8      C    -3.40647232    -3.74315213     0.36417241
      9      C    -2.08487807    -3.28472070     0.43130916
     10      C    -1.54987465    -2.53359044    -0.62266085
     11      C    -2.33646548    -2.24089162    -1.74376760
     12      C    -3.65805974    -2.69932305    -1.81090435
     13      H    -3.81587125    -4.31793708     1.17069844
     14      H    -1.48295774    -3.50870166     1.28921002
     15      H    -1.92706657    -1.66610667    -2.55029363
     16      H    -4.25998008    -2.47534209    -2.66880521
     17      H    -5.20438242    -3.80125730    -0.80830917
     18      H     2.32514145    -0.94333367    -0.37095895
     19      B     1.85103070     2.46611042     0.80757453
     20      F     1.21169900     1.96533883     1.83725713
     21      F     1.17915281     2.94809146    -0.21028491
     22      F     3.16224029     2.48490098     0.79575137
 
Total System Charge             0.00000
 
 
----------------
ADF Engine Input
----------------
 
 NumericalQuality VeryGood
 SCF
 Converge 1.0e-6
 Iterations 99
 End
 SYMMETRY NOSYM
 XC
 GGA OLYP
 End
 basis
 core None
 type TZ2P
 End
 

 Title: *** (NO TITLE) ***

 Using automatic Hessian for delocalized coordinates.
 *** GOStep1 ***

 Energy gradients wrt nuclear displacements
 ==========================================

     Atom      Cartesian (a.u./angstrom)
                 X         Y         Z
 ----------------------------------------
     1 H    -0.001991  0.001822 -0.000130
     2 C     0.057821  0.017035  0.002152
     3 C    -0.011028 -0.035205 -0.006488
     4 C     0.051420 -0.005358 -0.000983
     5 O    -0.008396  0.151251  0.066811
     6 H    -0.005661  0.005875 -0.001348
     7 C    -0.025019 -0.008928 -0.000607
     8 C    -0.010913 -0.016690  0.022814
     9 C     0.017599  0.002204  0.018603
    10 C    -0.049296 -0.011588 -0.000317
    11 C     0.015506  0.012006 -0.015436
    12 C    -0.015591  0.007483 -0.025099
    13 H     0.007054  0.010304 -0.015952
    14 H    -0.010883  0.004211 -0.016140
    15 H    -0.007503 -0.010302  0.014655
    16 H     0.010625 -0.004755  0.016549
    17 H     0.019138  0.006718  0.000984
    18 H    -0.038593  0.030598  0.010040
    19 B    -0.002680  0.081008  0.047473
    20 F     0.044855 -0.040238 -0.113946
    21 F     0.047031 -0.116313  0.035320
    22 F    -0.083493 -0.081137 -0.038955
 ----------------------------------------
 Mulliken charges used for AMS results%charges...
 
----------------------------------------------------------------------
Geometry Convergence after Step   1       (Hartree/Angstrom,Angstrom)
----------------------------------------------------------------------
current energy                               -4.88713026 Hartree
energy change                      -4.88713026     0.00022000    F
constrained gradient max            0.15125242     0.00100000    F
constrained gradient rms            0.03962574     0.00066667    F
gradient max                        0.15125242
gradient rms                        0.03962574
cart. step max                      0.12310537     0.01000000    F
cart. step rms                      0.03050081     0.00666667    F
 
 
--------
Geometry
--------
Formula: C9H8BF3O
Atoms
  Index Symbol   x (angstrom)   y (angstrom)   z (angstrom)
      1      H    -0.61408188    -0.04625589    -0.09274985
      2      C    -0.11205506    -2.04879070    -0.55722127
      3      C     0.17955402    -0.77064449    -0.27770713
      4      C     1.56139732    -0.26058551    -0.20273550
      5      O     1.88124417     0.89197125     0.04754740
      6      H     0.67837930    -2.77137506    -0.74385058
      7      C    -4.20083218    -3.45870562    -0.75702845
      8      C    -3.41391861    -3.75024340     0.36232601
      9      C    -2.09271977    -3.29522308     0.42740794
     10      C    -1.55719626    -2.54703642    -0.62810051
     11      C    -2.34512403    -2.25554722    -1.74822196
     12      C    -3.66620616    -2.71157026    -1.81188505
     13      H    -3.82465103    -4.32462791     1.17370260
     14      H    -1.48850566    -3.51984208     1.28839021
     15      H    -1.93479486    -1.68112350    -2.55956724
     16      H    -4.27087345    -2.48720031    -2.67268729
     17      H    -5.21664032    -3.80894999    -0.80650473
     18      H     2.32569279    -0.99938536    -0.39230392
     19      B     1.87773027     2.45684774     0.79643896
     20      F     1.22923759     2.07677849     1.89275522
     21      F     1.20523890     3.07119683    -0.17123114
     22      F     3.19742654     2.58801529     0.84471027
 
Total System Charge             0.00000
 
 *** GOStep2 ***

 Energy gradients wrt nuclear displacements
 ==========================================

     Atom      Cartesian (a.u./angstrom)
                 X         Y         Z
 ----------------------------------------
     1 H    -0.001844  0.001390 -0.000319
     2 C     0.049720  0.014137  0.001670
     3 C    -0.012481 -0.030756 -0.004682
     4 C     0.047534  0.002521 -0.000796
     5 O    -0.013398  0.069925  0.031195
     6 H    -0.004916  0.004406 -0.001906
     7 C    -0.018074 -0.006449 -0.000294
     8 C    -0.008090 -0.012437  0.016845
     9 C     0.013051  0.003378  0.013595
    10 C    -0.043677 -0.010640 -0.000347
    11 C     0.012375  0.008061 -0.011016
    12 C    -0.011524  0.005739 -0.018568
    13 H     0.005037  0.007379 -0.011962
    14 H    -0.007971  0.003064 -0.011966
    15 H    -0.005527 -0.007585  0.010845
    16 H     0.007645 -0.003629  0.012281
    17 H     0.014075  0.004906  0.000686
    18 H    -0.028902  0.020299  0.007351
    19 B     0.002614  0.037147  0.024591
    20 F     0.023046 -0.017867 -0.057317
    21 F     0.023065 -0.056116  0.018255
    22 F    -0.041758 -0.036872 -0.018139
 ----------------------------------------
 Mulliken charges used for AMS results%charges...

 dE(predicted):    -0.42491E-01, dE(actual):    -0.34240E-01, Trust radius:    0.400000, all in a.u.
 
----------------------------------------------------------------------
Geometry Convergence after Step   2       (Hartree/Angstrom,Angstrom)
----------------------------------------------------------------------
current energy                               -4.92137010 Hartree
energy change                      -0.03423984     0.00022000    F
constrained gradient max            0.06992022     0.00100000    F
constrained gradient rms            0.02209975     0.00066667    F
gradient max                        0.06992022
gradient rms                        0.02209975
cart. step max                      0.19592964     0.01000000    F
cart. step rms                      0.07618887     0.00666667    F
 
 
--------
Geometry
--------
Formula: C9H8BF3O
Atoms
  Index Symbol   x (angstrom)   y (angstrom)   z (angstrom)
      1      H    -0.58404342     0.00663395    -0.09706110
      2      C    -0.14812701    -2.03937252    -0.50527894
      3      C     0.17627971    -0.75603655    -0.25715620
      4      C     1.57365902    -0.33647159    -0.17969090
      5      O     1.93807677     0.81527150     0.02631512
      6      H     0.64217651    -2.77878276    -0.64571452
      7      C    -4.19189621    -3.47037330    -0.76565085
      8      C    -3.38866429    -3.83333868     0.31641057
      9      C    -2.07017887    -3.38458401     0.39404227
     10      C    -1.55899399    -2.53808536    -0.59785443
     11      C    -2.36580808    -2.17563000    -1.68352843
     12      C    -3.67668276    -2.64697655    -1.76696400
     13      H    -3.78849370    -4.46623020     1.10235453
     14      H    -1.45021510    -3.66879620     1.23821172
     15      H    -1.97116200    -1.52950320    -2.46058750
     16      H    -4.29801450    -2.36200307    -2.61008711
     17      H    -5.21526296    -3.82689811    -0.82726725
     18      H     2.33011378    -1.12191511    -0.34390720
     19      B     1.86806681     2.45447603     0.70006932
     20      F     1.03330796     2.23716136     1.74667605
     21      F     1.36971663     3.13418399    -0.35973870
     22      F     3.17444730     2.63497317     0.98789154
 
Total System Charge             0.00000
 
 *** GOStep3 ***

 Energy gradients wrt nuclear displacements
 ==========================================

     Atom      Cartesian (a.u./angstrom)
                 X         Y         Z
 ----------------------------------------
     1 H    -0.001368  0.000782  0.000383
     2 C     0.026482  0.007860  0.000076
     3 C    -0.010273 -0.006677 -0.000726
     4 C     0.030552  0.000836  0.004233
     5 O    -0.027035  0.023888  0.009039
     6 H    -0.002602  0.000528 -0.003943
     7 C    -0.001761 -0.001027  0.000296
     8 C    -0.002251 -0.001194  0.001663
     9 C     0.004681  0.002853  0.001180
    10 C    -0.026617 -0.006090  0.001679
    11 C     0.006541 -0.001324 -0.002045
    12 C    -0.001478  0.000289 -0.002393
    13 H     0.000407  0.001636 -0.001718
    14 H    -0.001439  0.000906 -0.001563
    15 H    -0.000993 -0.001171  0.001264
    16 H     0.000879 -0.000481  0.002213
    17 H     0.002037  0.000715  0.000087
    18 H    -0.006056  0.001987  0.000802
    19 B     0.006917 -0.003371  0.000984
    20 F     0.004812 -0.006400 -0.008975
    21 F     0.002098 -0.008130  0.001192
    22 F    -0.003533 -0.006414 -0.003729
 ----------------------------------------
 Mulliken charges used for AMS results%charges...

 dE(predicted):    -0.11602E-01, dE(actual):    -0.14835E-01, Trust radius:    0.800000, all in a.u.
 
----------------------------------------------------------------------
Geometry Convergence after Step   3       (Hartree/Angstrom,Angstrom)
----------------------------------------------------------------------
current energy                               -4.93620559 Hartree
energy change                      -0.01483549     0.00022000    F
constrained gradient max            0.03055543     0.00100000    F
constrained gradient rms            0.00828965     0.00066667    F
gradient max                        0.03055543
gradient rms                        0.00828965
cart. step max                      0.19095937     0.01000000    F
cart. step rms                      0.06894444     0.00666667    F
 
 
--------
Geometry
--------
Formula: C9H8BF3O
Atoms
  Index Symbol   x (angstrom)   y (angstrom)   z (angstrom)
      1      H    -0.55724598     0.02799708    -0.12797216
      2      C    -0.15415693    -2.04271363    -0.45517614
      3      C     0.18859480    -0.75575616    -0.24366626
      4      C     1.59029185    -0.36794157    -0.15840647
      5      O     1.98175072     0.78054144     0.02630899
      6      H     0.63292060    -2.79375005    -0.55377549
      7      C    -4.18742555    -3.46782317    -0.77163795
      8      C    -3.36882455    -3.90470298     0.27046174
      9      C    -2.05416375    -3.45136841     0.36856183
     10      C    -1.55604039    -2.53300279    -0.56581600
     11      C    -2.38135145    -2.09456135    -1.60995359
     12      C    -3.68967928    -2.56734497    -1.71289393
     13      H    -3.75360871    -4.60219259     1.01039860
     14      H    -1.42047799    -3.79865281     1.18062914
     15      H    -1.99899248    -1.39058642    -2.34402856
     16      H    -4.32141663    -2.22749939    -2.52988116
     17      H    -5.20978088    -3.82926182    -0.85003672
     18      H     2.33652910    -1.17988874    -0.25545150
     19      B     1.84469183     2.45945041     0.61842064
     20      F     0.86714822     2.32061070     1.55571668
     21      F     1.50850696     3.11322349    -0.52356622
     22      F     3.10103211     2.65292653     1.08324854
 
Total System Charge             0.00000
 
 *** GOStep4 ***

 Energy gradients wrt nuclear displacements
 ==========================================

     Atom      Cartesian (a.u./angstrom)
                 X         Y         Z
 ----------------------------------------
     1 H    -0.000918  0.000581 -0.000141
     2 C     0.019577  0.006711  0.000520
     3 C    -0.008845 -0.004303  0.003834
     4 C     0.025959  0.000976 -0.003408
     5 O    -0.030271  0.016065  0.006411
     6 H    -0.001416  0.000030 -0.005273
     7 C     0.000743 -0.000033  0.000389
     8 C    -0.001426  0.000122 -0.001626
     9 C     0.002249  0.005948  0.001474
    10 C    -0.020438 -0.005945  0.000672
    11 C     0.005812 -0.003255 -0.000965
    12 C    -0.000505 -0.000744  0.000717
    13 H    -0.000122  0.000045 -0.000142
    14 H    -0.000162  0.000049 -0.000043
    15 H    -0.000294  0.000317 -0.000147
    16 H    -0.000171 -0.000095  0.000193
    17 H    -0.000060  0.000040 -0.000004
    18 H    -0.001960 -0.001719  0.002944
    19 B     0.009195 -0.010681 -0.001845
    20 F     0.001700 -0.003130 -0.002300
    21 F     0.000232 -0.000540 -0.000970
    22 F     0.001124 -0.000439 -0.000292
 ----------------------------------------
 Mulliken charges used for AMS results%charges...

 dE(predicted):    -0.40094E-02, dE(actual):    -0.29245E-02, Trust radius:    0.800000, all in a.u.
 
----------------------------------------------------------------------
Geometry Convergence after Step   4       (Hartree/Angstrom,Angstrom)
----------------------------------------------------------------------
current energy                               -4.93913009 Hartree
energy change                      -0.00292450     0.00022000    F
constrained gradient max            0.03026295     0.00100000    F
constrained gradient rms            0.00702780     0.00066667    F
gradient max                        0.03026295
gradient rms                        0.00702780
cart. step max                      0.19393644     0.01000000    F
cart. step rms                      0.06533265     0.00666667    F
 
 
--------
Geometry
--------
Formula: C9H8BF3O
Atoms
  Index Symbol   x (angstrom)   y (angstrom)   z (angstrom)
      1      H    -0.52215897     0.04605224    -0.14708454
      2      C    -0.15766394    -2.04521229    -0.40535605
      3      C     0.20659868    -0.75740558    -0.22214091
      4      C     1.61086330    -0.40482191    -0.11284535
      5      O     2.03514710     0.73980416     0.03569783
      6      H     0.62496092    -2.80656068    -0.46159484
      7      C    -4.18140234    -3.45597161    -0.77814314
      8      C    -3.34873211    -3.96263727     0.22035073
      9      C    -2.03507333    -3.51327726     0.33430769
     10      C    -1.54829485    -2.52657766    -0.53678102
     11      C    -2.39108328    -2.01812944    -1.53631657
     12      C    -3.69786038    -2.48860352    -1.65808510
     13      H    -3.72166347    -4.71457135     0.91375602
     14      H    -1.38987884    -3.91769741     1.11214422
     15      H    -2.01939063    -1.26205223    -2.22454591
     16      H    -4.33987025    -2.09435409    -2.44400879
     17      H    -5.20433463    -3.81660762    -0.87105793
     18      H     2.34382834    -1.23690201    -0.17448781
     19      B     1.80835152     2.45420776     0.53398181
     20      F     0.72472554     2.36854190     1.36178025
     21      F     1.60299981     3.06344497    -0.66620400
     22      F     2.99823341     2.69703371     1.13811742
 
Total System Charge             0.00000
 
 *** GOStep5 ***

 Energy gradients wrt nuclear displacements
 ==========================================

     Atom      Cartesian (a.u./angstrom)
                 X         Y         Z
 ----------------------------------------
     1 H    -0.000339  0.000302 -0.000472
     2 C     0.010252  0.004934 -0.000079
     3 C    -0.006153 -0.001223  0.003357
     4 C     0.020185 -0.000429  0.001445
     5 O    -0.031275  0.008700  0.000111
     6 H    -0.000202 -0.000390 -0.006351
     7 C     0.002637  0.000750  0.000239
     8 C    -0.000624  0.001869 -0.003270
     9 C    -0.000024  0.006642  0.001203
    10 C    -0.011896 -0.004323  0.001402
    11 C     0.004870 -0.004785 -0.000728
    12 C     0.000363 -0.002248  0.002682
    13 H    -0.000556 -0.001287  0.001133
    14 H     0.000781 -0.000658  0.001239
    15 H     0.000305  0.001604 -0.001026
    16 H    -0.001106  0.000685 -0.001233
    17 H    -0.001720 -0.000539 -0.000133
    18 H     0.001663 -0.004312  0.001513
    19 B     0.011673 -0.015948 -0.003050
    20 F    -0.002071  0.000681  0.002402
    21 F    -0.000589  0.005306 -0.003274
    22 F     0.003826  0.004669  0.002890
 ----------------------------------------
 Mulliken charges used for AMS results%charges...

 dE(predicted):    -0.81093E-02, dE(actual):    -0.30153E-02, Trust radius:    0.800000, all in a.u.
 
----------------------------------------------------------------------
Geometry Convergence after Step   5       (Hartree/Angstrom,Angstrom)
----------------------------------------------------------------------
current energy                               -4.94214536 Hartree
energy change                      -0.00301527     0.00022000    F
constrained gradient max            0.03126165     0.00100000    F
constrained gradient rms            0.00616446     0.00066667    F
gradient max                        0.03126165
gradient rms                        0.00616446
cart. step max                      0.19719437     0.01000000    F
cart. step rms                      0.06235072     0.00666667    F
 
 
--------
Geometry
--------
Formula: C9H8BF3O
Atoms
  Index Symbol   x (angstrom)   y (angstrom)   z (angstrom)
      1      H    -0.46538659     0.06802152    -0.17580915
      2      C    -0.15296063    -2.04292339    -0.36602395
      3      C     0.24101411    -0.75651667    -0.21474266
      4      C     1.64749256    -0.44370475    -0.09119900
      5      O     2.11384164     0.69030969     0.03873076
      6      H     0.62134899    -2.81581286    -0.37835663
      7      C    -4.17128318    -3.42701919    -0.77425802
      8      C    -3.32568601    -3.99013544     0.18285281
      9      C    -2.01116739    -3.54913739     0.30365452
     10      C    -1.53172433    -2.51071651    -0.51381663
     11      C    -2.39141317    -1.94749721    -1.47209462
     12      C    -3.69855857    -2.41113799    -1.60426145
     13      H    -3.68942837    -4.78159235     0.83767649
     14      H    -1.35591605    -3.99886731     1.04907021
     15      H    -2.02784068    -1.15405389    -2.12287230
     16      H    -4.34978307    -1.97333737    -2.36039042
     17      H    -5.19609276    -3.78309566    -0.87497296
     18      H     2.36034354    -1.29837240    -0.10481069
     19      B     1.73752353     2.41734425     0.46227104
     20      F     0.56391114     2.32194019     1.16458588
     21      F     1.64580915     2.99505602    -0.77006256
     22      F     2.83425777     2.73895149     1.19631333
 
Total System Charge             0.00000
 
 *** GOStep6 ***

 Energy gradients wrt nuclear displacements
 ==========================================

     Atom      Cartesian (a.u./angstrom)
                 X         Y         Z
 ----------------------------------------
     1 H     0.000233  0.000100 -0.000371
     2 C    -0.002707  0.001366 -0.000583
     3 C    -0.001686  0.001571  0.004974
     4 C     0.013091 -0.000122 -0.001929
     5 O    -0.027899  0.000286 -0.003741
     6 H     0.000972 -0.000625 -0.006608
     7 C     0.003704  0.001445  0.000061
     8 C     0.000459  0.003103 -0.003613
     9 C    -0.002332  0.006012  0.001216
    10 C     0.000574 -0.000975  0.001867
    11 C     0.002786 -0.005875 -0.001411
    12 C     0.001016 -0.003072  0.003508
    13 H    -0.000774 -0.002282  0.001976
    14 H     0.001423 -0.001272  0.002099
    15 H     0.000730  0.002439 -0.001461
    16 H    -0.001738  0.001428 -0.002148
    17 H    -0.002806 -0.000944 -0.000260
    18 H     0.004333 -0.006464  0.003216
    19 B     0.013180 -0.017867 -0.001882
    20 F    -0.006148  0.004178  0.005081
    21 F    -0.000981  0.009043 -0.005290
    22 F     0.004571  0.008526  0.005300
 ----------------------------------------
 Mulliken charges used for AMS results%charges...

 dE(predicted):    -0.91875E-02, dE(actual):    -0.33659E-02, Trust radius:    0.800000, all in a.u.
 
----------------------------------------------------------------------
Geometry Convergence after Step   6       (Hartree/Angstrom,Angstrom)
----------------------------------------------------------------------
current energy                               -4.94551122 Hartree
energy change                      -0.00336586     0.00022000    F
constrained gradient max            0.02788647     0.00100000    F
constrained gradient rms            0.00568305     0.00066667    F
gradient max                        0.02788647
gradient rms                        0.00568305
cart. step max                      0.20600108     0.01000000    F
cart. step rms                      0.06794590     0.00666667    F
 
 
--------
Geometry
--------
Formula: C9H8BF3O
Atoms
  Index Symbol   x (angstrom)   y (angstrom)   z (angstrom)
      1      H    -0.40015763     0.08937878    -0.18246666
      2      C    -0.14190632    -2.03608201    -0.32465750
      3      C     0.28260235    -0.75459960    -0.19029986
      4      C     1.69024401    -0.48291696    -0.04707052
      5      O     2.20259957     0.63790488     0.06018099
      6      H     0.62211554    -2.81992116    -0.30663031
      7      C    -4.15713805    -3.39011642    -0.77317309
      8      C    -3.30049553    -4.00904243     0.13911943
      9      C    -1.98668055    -3.57317039     0.27280960
     10      C    -1.51218576    -2.48678497    -0.48740534
     11      C    -2.38688912    -1.86901248    -1.40067535
     12      C    -3.69420383    -2.32512806    -1.54564366
     13      H    -3.65539203    -4.84127759     0.74755987
     14      H    -1.32198699    -4.06850116     0.98106628
     15      H    -2.03026515    -1.03936789    -2.00960765
     16      H    -4.35287772    -1.84509035    -2.26983734
     17      H    -5.18273501    -3.74225888    -0.88523558
     18      H     2.38017925    -1.35769545    -0.03101277
     19      B     1.64948771     2.35966037     0.37666563
     20      F     0.41182637     2.21925377     0.95858480
     21      F     1.64643904     2.89537922    -0.87971822
     22      F     2.63572144     2.78709154     1.20893126
 
Total System Charge             0.00000
 
 *** GOStep7 ***

 Energy gradients wrt nuclear displacements
 ==========================================

     Atom      Cartesian (a.u./angstrom)
                 X         Y         Z
 ----------------------------------------
     1 H     0.000484  0.000614 -0.000639
     2 C    -0.014650 -0.001798 -0.001927
     3 C     0.002895  0.003735  0.005715
     4 C     0.004256  0.000552  0.000364
     5 O    -0.017807 -0.007581 -0.007125
     6 H     0.002200 -0.000548 -0.007047
     7 C     0.004199  0.001895 -0.000073
     8 C     0.001529  0.003607 -0.003819
     9 C    -0.004805  0.005831  0.002415
    10 C     0.012176  0.001969  0.002721
    11 C     0.000625 -0.006385 -0.002067
    12 C     0.001526 -0.003493  0.004021
    13 H    -0.000818 -0.003090  0.002223
    14 H     0.001944 -0.001892  0.002374
    15 H     0.001078  0.003002 -0.001528
    16 H    -0.002021  0.001856 -0.002721
    17 H    -0.003457 -0.001150 -0.000311
    18 H     0.006235 -0.007598  0.002809
    19 B     0.011686 -0.016923 -0.000177
    20 F    -0.009610  0.005545  0.005218
    21 F    -0.001360  0.011170 -0.006838
    22 F     0.003695  0.010682  0.006412
 ----------------------------------------
 Mulliken charges used for AMS results%charges...

 dE(predicted):    -0.85709E-02, dE(actual):    -0.29435E-02, Trust radius:    0.800000, all in a.u.
 
----------------------------------------------------------------------
Geometry Convergence after Step   7       (Hartree/Angstrom,Angstrom)
----------------------------------------------------------------------
current energy                               -4.94845475 Hartree
energy change                      -0.00294352     0.00022000    F
constrained gradient max            0.01779422     0.00100000    F
constrained gradient rms            0.00579323     0.00066667    F
gradient max                        0.01779422
gradient rms                        0.00579323
cart. step max                      0.20862051     0.01000000    F
cart. step rms                      0.06827142     0.00666667    F
 
 
--------
Geometry
--------
Formula: C9H8BF3O
Atoms
  Index Symbol   x (angstrom)   y (angstrom)   z (angstrom)
      1      H    -0.37270241     0.09912333    -0.18307653
      2      C    -0.13984037    -2.03381850    -0.26674546
      3      C     0.29769222    -0.75330768    -0.15379253
      4      C     1.70386263    -0.50181489     0.01467484
      5      O     2.24371789     0.61034263     0.10925684
      6      H     0.61612387    -2.82332098    -0.20081574
      7      C    -4.14803315    -3.37419392    -0.78514386
      8      C    -3.27853920    -4.05703347     0.06734740
      9      C    -1.96589953    -3.62546141     0.22032497
     10      C    -1.50447842    -2.47818334    -0.45535259
     11      C    -2.39357795    -1.79698098    -1.30889141
     12      C    -3.69879795    -2.24943104    -1.47686931
     13      H    -3.62227040    -4.93712968     0.61223593
     14      H    -1.29059219    -4.17096126     0.88076088
     15      H    -2.04765870    -0.92080796    -1.85642241
     16      H    -4.36717446    -1.71931113    -2.15646526
     17      H    -5.17285577    -3.72373266    -0.91505326
     18      H     2.37730373    -1.38827783     0.07491812
     19      B     1.61447679     2.33746737     0.27554230
     20      F     0.32865442     2.20410337     0.74996429
     21      F     1.71207971     2.80768053    -1.00431458
     22      F     2.50681091     2.84275231     1.16940138
 
Total System Charge             0.00000
 
 *** GOStep8 ***

 Energy gradients wrt nuclear displacements
 ==========================================

     Atom      Cartesian (a.u./angstrom)
                 X         Y         Z
 ----------------------------------------
     1 H     0.000169  0.000743 -0.000376
     2 C    -0.016251 -0.000609 -0.003001
     3 C     0.002976  0.003798  0.006752
     4 C    -0.000530  0.001199 -0.002079
     5 O    -0.009409 -0.011681 -0.005414
     6 H     0.003180 -0.000925 -0.005932
     7 C     0.004693  0.002499 -0.000146
     8 C     0.001582  0.004998 -0.004001
     9 C    -0.005028  0.005245  0.001940
    10 C     0.012722  0.002205  0.002762
    11 C     0.000745 -0.006334 -0.001418
    12 C     0.001446 -0.005187  0.004434
    13 H    -0.000856 -0.003617  0.002333
    14 H     0.002273 -0.002253  0.002555
    15 H     0.001554  0.003635 -0.001445
    16 H    -0.002277  0.002327 -0.002913
    17 H    -0.003898 -0.001328 -0.000452
    18 H     0.007085 -0.008185  0.003280
    19 B     0.009786 -0.017405  0.000598
    20 F    -0.011478  0.006053  0.004145
    21 F    -0.001338  0.012673 -0.008419
    22 F     0.002855  0.012150  0.006795
 ----------------------------------------
 Mulliken charges used for AMS results%charges...

 dE(predicted):    -0.44619E-02, dE(actual):    -0.18510E-02, Trust radius:    0.800000, all in a.u.
 
----------------------------------------------------------------------
Geometry Convergence after Step   8       (Hartree/Angstrom,Angstrom)
----------------------------------------------------------------------
current energy                               -4.95030571 Hartree
energy change                      -0.00185096     0.00022000    F
constrained gradient max            0.01742623     0.00100000    F
constrained gradient rms            0.00587926     0.00066667    F
gradient max                        0.01742623
gradient rms                        0.00587926
cart. step max                      0.20437188     0.01000000    F
cart. step rms                      0.08359250     0.00666667    F
 
 
--------
Geometry
--------
Formula: C9H8BF3O
Atoms
  Index Symbol   x (angstrom)   y (angstrom)   z (angstrom)
      1      H    -0.36173411     0.11275432    -0.21051204
      2      C    -0.15328409    -2.02580274    -0.18799880
      3      C     0.29438112    -0.74433498    -0.11211384
      4      C     1.69361382    -0.50631876     0.11041422
      5      O     2.26379094     0.59568440     0.18073240
      6      H     0.59069831    -2.81715416    -0.05012517
      7      C    -4.14043825    -3.37966288    -0.81109720
      8      C    -3.24968458    -4.13015143    -0.04147569
      9      C    -1.94486656    -3.68932897     0.14565661
     10      C    -1.50968672    -2.47079619    -0.41434995
     11      C    -2.42068157    -1.72450083    -1.18843088
     12      C    -3.71915215    -2.18113831    -1.38810395
     13      H    -3.57055584    -5.06972731     0.41002646
     14      H    -1.25160526    -4.28754464     0.73847916
     15      H    -2.09597432    -0.79383461    -1.65253062
     16      H    -4.40334447    -1.59953495    -2.00713848
     17      H    -5.15950564    -3.73461490    -0.96888537
     18      H     2.34440348    -1.40173666     0.24053304
     19      B     1.62361241     2.33454119     0.15616209
     20      F     0.30419366     2.24958959     0.54559240
     21      F     1.81409894     2.69306605    -1.14938103
     22      F     2.45002252     2.91824957     1.06603063
 
Total System Charge             0.00000
 
 *** GOStep9 ***

 Energy gradients wrt nuclear displacements
 ==========================================

     Atom      Cartesian (a.u./angstrom)
                 X         Y         Z
 ----------------------------------------
     1 H     0.000087  0.000159 -0.000583
     2 C    -0.014217 -0.000032 -0.003880
     3 C     0.001652  0.003448  0.005792
     4 C    -0.005792  0.001132 -0.002086
     5 O    -0.000775 -0.012722 -0.003343
     6 H     0.003637 -0.001372 -0.004489
     7 C     0.004569  0.003039 -0.000162
     8 C     0.001593  0.005579 -0.003697
     9 C    -0.004982  0.004626  0.002177
    10 C     0.010557  0.001706  0.002738
    11 C     0.001140 -0.005450 -0.000834
    12 C     0.000872 -0.006038  0.004529
    13 H    -0.000703 -0.003929  0.001944
    14 H     0.002422 -0.002604  0.002076
    15 H     0.002017  0.003875 -0.001133
    16 H    -0.002228  0.002481 -0.002897
    17 H    -0.003857 -0.001402 -0.000589
    18 H     0.007098 -0.007684  0.003216
    19 B     0.008163 -0.017496  0.001537
    20 F    -0.012552  0.007419  0.002838
    21 F    -0.000901  0.012226 -0.009459
    22 F     0.002199  0.013040  0.006304
 ----------------------------------------
 Mulliken charges used for AMS results%charges...

 dE(predicted):    -0.32253E-02, dE(actual):    -0.17728E-02, Trust radius:    0.800000, all in a.u.
 
----------------------------------------------------------------------
Geometry Convergence after Step   9       (Hartree/Angstrom,Angstrom)
----------------------------------------------------------------------
current energy                               -4.95207854 Hartree
energy change                      -0.00177283     0.00022000    F
constrained gradient max            0.01751148     0.00100000    F
constrained gradient rms            0.00566372     0.00066667    F
gradient max                        0.01751148
gradient rms                        0.00566372
cart. step max                      0.20746661     0.01000000    F
cart. step rms                      0.07950327     0.00666667    F
 
 
--------
Geometry
--------
Formula: C9H8BF3O
Atoms
  Index Symbol   x (angstrom)   y (angstrom)   z (angstrom)
      1      H    -0.35046408     0.13236014    -0.24395806
      2      C    -0.17829873    -2.00690359    -0.10245512
      3      C     0.28552542    -0.72733352    -0.07293017
      4      C     1.67596070    -0.50085733     0.20053977
      5      O     2.27369536     0.58964165     0.24558932
      6      H     0.54559657    -2.79621894     0.12130676
      7      C    -4.13118249    -3.39837473    -0.84701560
      8      C    -3.21565599    -4.19493524    -0.15700006
      9      C    -1.92265913    -3.73659853     0.06594354
     10      C    -1.52305168    -2.45738554    -0.37467179
     11      C    -2.46009403    -1.66746104    -1.07371816
     12      C    -3.74605330    -2.13848957    -1.30991093
     13      H    -3.50792627    -5.18173927     0.20255985
     14      H    -1.20993650    -4.36754545     0.59786392
     15      H    -2.16639129    -0.68967477    -1.45197117
     16      H    -4.45118038    -1.51942873    -1.86492475
     17      H    -5.14150951    -3.76352196    -1.03237756
     18      H     2.29922696    -1.40073821     0.40279792
     19      B     1.65316913     2.33056372     0.04961049
     20      F     0.32081755     2.29722410     0.40038369
     21      F     1.89061138     2.56345580    -1.27572531
     22      F     2.45810194     2.98166382     0.93154741
 
Total System Charge             0.00000
 
 *** GOStep10 ***

 Energy gradients wrt nuclear displacements
 ==========================================

     Atom      Cartesian (a.u./angstrom)
                 X         Y         Z
 ----------------------------------------
     1 H    -0.000032 -0.000553  0.000172
     2 C    -0.011880 -0.001121 -0.003678
     3 C     0.001828  0.003955  0.004254
     4 C    -0.008650  0.001183 -0.004004
     5 O     0.004274 -0.013026 -0.000922
     6 H     0.002965 -0.001316 -0.001963
     7 C     0.003895  0.002978  0.000005
     8 C     0.001243  0.005293 -0.002140
     9 C    -0.003818  0.002704  0.000561
    10 C     0.009059  0.001891  0.002575
    11 C     0.000205 -0.004003 -0.000350
    12 C     0.000869 -0.005730  0.003018
    13 H    -0.000508 -0.003565  0.001427
    14 H     0.002133 -0.002304  0.001668
    15 H     0.001986  0.003314 -0.000919
    16 H    -0.002041  0.002441 -0.002150
    17 H    -0.003279 -0.001289 -0.000573
    18 H     0.006120 -0.006304  0.003355
    19 B     0.006465 -0.015329  0.002317
    20 F    -0.012186  0.008069  0.001538
    21 F    -0.000529  0.010091 -0.009398
    22 F     0.001883  0.012622  0.005207
 ----------------------------------------
 Mulliken charges used for AMS results%charges...

 dE(predicted):    -0.22384E-02, dE(actual):    -0.14515E-02, Trust radius:    0.800000, all in a.u.
 
----------------------------------------------------------------------
Geometry Convergence after Step  10       (Hartree/Angstrom,Angstrom)
----------------------------------------------------------------------
current energy                               -4.95353005 Hartree
energy change                      -0.00145151     0.00022000    F
constrained gradient max            0.01534267     0.00100000    F
constrained gradient rms            0.00516128     0.00066667    F
gradient max                        0.01534267
gradient rms                        0.00516128
cart. step max                      0.20937562     0.01000000    F
cart. step rms                      0.07814497     0.00666667    F
 
 
--------
Geometry
--------
Formula: C9H8BF3O
Atoms
  Index Symbol   x (angstrom)   y (angstrom)   z (angstrom)
      1      H    -0.32307776     0.15134967    -0.30443335
      2      C    -0.20522365    -1.98049718    -0.02870240
      3      C     0.28164922    -0.70775046    -0.04426776
      4      C     1.65622420    -0.48997807     0.30113054
      5      O     2.27906903     0.58813506     0.31973918
      6      H     0.49452995    -2.76596669     0.26842674
      7      C    -4.11921752    -3.41902459    -0.88540702
      8      C    -3.17426305    -4.24426611    -0.27343590
      9      C    -1.89862828    -3.76062689    -0.00765274
     10      C    -1.53915623    -2.43637158    -0.33942554
     11      C    -2.50764356    -1.61915704    -0.96363514
     12      C    -3.77910271    -2.10835917    -1.23220912
     13      H    -3.43103148    -5.26867603    -0.00681577
     14      H    -1.16253465    -4.41109313     0.46387458
     15      H    -2.25407324    -0.60202527    -1.25349621
     16      H    -4.50871337    -1.46661947    -1.72444393
     17      H    -5.11749722    -3.79867711    -1.09987936
     18      H     2.24430810    -1.38821449     0.58645122
     19      B     1.68364376     2.31410102    -0.04761077
     20      F     0.35173252     2.32956874     0.29948329
     21      F     1.92999699     2.40189616    -1.38700000
     22      F     2.49731057     3.02995544     0.77079346
 
Total System Charge             0.00000
 
 *** GOStep11 ***

 Energy gradients wrt nuclear displacements
 ==========================================

     Atom      Cartesian (a.u./angstrom)
                 X         Y         Z
 ----------------------------------------
     1 H     0.000312 -0.000909  0.000013
     2 C    -0.010518 -0.002971 -0.003408
     3 C     0.003295  0.004678  0.003149
     4 C    -0.010254  0.000990 -0.002705
     5 O     0.007306 -0.012253  0.000061
     6 H     0.002001 -0.000884 -0.001255
     7 C     0.002670  0.002158  0.000351
     8 C     0.001200  0.003364 -0.001439
     9 C    -0.003426  0.001556  0.001285
    10 C     0.009240  0.002213  0.002400
    11 C    -0.001365 -0.002594 -0.000678
    12 C     0.000909 -0.003437  0.002221
    13 H    -0.000253 -0.002703  0.000647
    14 H     0.001710 -0.001771  0.000780
    15 H     0.001337  0.002212 -0.000630
    16 H    -0.001412  0.001754 -0.001592
    17 H    -0.002287 -0.001029 -0.000451
    18 H     0.004537 -0.004317  0.002714
    19 B     0.004199 -0.010330  0.002172
    20 F    -0.010403  0.007128  0.000400
    21 F    -0.000290  0.006673 -0.007575
    22 F     0.001492  0.010471  0.003540
 ----------------------------------------
 Mulliken charges used for AMS results%charges...
 Rebuilding optimization coordinates

 dE(predicted):    -0.14692E-02, dE(actual):    -0.10996E-02, Trust radius:    0.800000, all in a.u.
 
----------------------------------------------------------------------
Geometry Convergence after Step  11       (Hartree/Angstrom,Angstrom)
----------------------------------------------------------------------
current energy                               -4.95462967 Hartree
energy change                      -0.00109962     0.00022000    F
constrained gradient max            0.01227568     0.00100000    F
constrained gradient rms            0.00436937     0.00066667    F
gradient max                        0.01227568
gradient rms                        0.00436937
cart. step max                      0.21240573     0.01000000    F
cart. step rms                      0.07929496     0.00666667    F
 
 
--------
Geometry
--------
Formula: C9H8BF3O
Atoms
  Index Symbol   x (angstrom)   y (angstrom)   z (angstrom)
      1      H    -0.29707574     0.16124221    -0.35834471
      2      C    -0.23916885    -1.95060675     0.06135226
      3      C     0.27372088    -0.69001575    -0.01096203
      4      C     1.63429720    -0.47358599     0.38780782
      5      O     2.27391277     0.59450776     0.37584255
      6      H     0.42967957    -2.72521471     0.44269529
      7      C    -4.10044680    -3.44199937    -0.94287415
      8      C    -3.13016094    -4.28190566    -0.39454893
      9      C    -1.87429364    -3.77559107    -0.07969681
     10      C    -1.55914199    -2.41631602    -0.29688289
     11      C    -2.55627827    -1.58322537    -0.85322014
     12      C    -3.80689331    -2.09339798    -1.17155890
     13      H    -3.35190661    -5.33215611    -0.21593318
     14      H    -1.11919434    -4.43426685     0.34603948
     15      H    -2.34877934    -0.53345957    -1.04109048
     16      H    -4.56171024    -1.43735850    -1.60058752
     17      H    -5.08418875    -3.83523426    -1.19256025
     18      H     2.18955113    -1.36292657     0.74712566
     19      B     1.71836057     2.29619233    -0.13904365
     20      F     0.41152326     2.38274128     0.27350053
     21      F     1.89808992     2.22940552    -1.48806995
     22      F     2.59840514     3.05087422     0.56249398
 
Total System Charge             0.00000
 
 *** GOStep12 ***

 Energy gradients wrt nuclear displacements
 ==========================================

     Atom      Cartesian (a.u./angstrom)
                 X         Y         Z
 ----------------------------------------
     1 H     0.000615 -0.001036  0.000803
     2 C    -0.008006 -0.002950 -0.001764
     3 C     0.003822  0.003685  0.001526
     4 C    -0.008172 -0.000523 -0.002944
     5 O     0.006212 -0.009583  0.000777
     6 H     0.000550 -0.000175  0.000275
     7 C     0.001599  0.000615  0.000160
     8 C     0.000263  0.001798  0.000340
     9 C    -0.001777  0.000097 -0.000920
    10 C     0.008022  0.002041  0.001792
    11 C    -0.002444 -0.001425 -0.000389
    12 C     0.001551 -0.001177  0.000566
    13 H    -0.000159 -0.001465  0.000231
    14 H     0.000968 -0.000847  0.000543
    15 H     0.000264  0.001036 -0.000368
    16 H    -0.000890  0.001027 -0.000491
    17 H    -0.001257 -0.000622 -0.000214
    18 H     0.002610 -0.002266  0.001766
    19 B     0.002734 -0.004241  0.000470
    20 F    -0.006908  0.005749  0.000113
    21 F    -0.000330  0.003334 -0.004144
    22 F     0.000736  0.006926  0.001870
 ----------------------------------------
 Mulliken charges used for AMS results%charges...

 dE(predicted):    -0.10213E-02, dE(actual):    -0.86553E-03, Trust radius:    0.800000, all in a.u.
 
----------------------------------------------------------------------
Geometry Convergence after Step  12       (Hartree/Angstrom,Angstrom)
----------------------------------------------------------------------
current energy                               -4.95549520 Hartree
energy change                      -0.00086553     0.00022000    F
constrained gradient max            0.00960349     0.00100000    F
constrained gradient rms            0.00306870     0.00066667    F
gradient max                        0.00960349
gradient rms                        0.00306870
cart. step max                      0.18691349     0.01000000    F
cart. step rms                      0.05582163     0.00666667    F
 
 
--------
Geometry
--------
Formula: C9H8BF3O
Atoms
  Index Symbol   x (angstrom)   y (angstrom)   z (angstrom)
      1      H    -0.26358308     0.15413290    -0.40904773
      2      C    -0.25157675    -1.93471225     0.11575566
      3      C     0.27993436    -0.68498220     0.00592508
      4      C     1.62503542    -0.46050376     0.45274506
      5      O     2.27279331     0.60144821     0.41566854
      6      H     0.39573261    -2.70118048     0.54590360
      7      C    -4.08283461    -3.44157259    -0.98267573
      8      C    -3.09913045    -4.29125665    -0.47475645
      9      C    -1.85790534    -3.77611827    -0.11787793
     10      C    -1.56524550    -2.40248054    -0.26715306
     11      C    -2.57619056    -1.55983802    -0.78345288
     12      C    -3.81563878    -2.07580965    -1.13326127
     13      H    -3.30103367    -5.35286516    -0.35513345
     14      H    -1.09332539    -4.44039850     0.27917667
     15      H    -2.39354587    -0.49688448    -0.90691507
     16      H    -4.58244598    -1.41300632    -1.52690619
     17      H    -5.05647096    -3.83892818    -1.26024277
     18      H     2.15575489    -1.33623781     0.87059419
     19      B     1.71284076     2.26794062    -0.19705928
     20      F     0.44646500     2.40255587     0.30766265
     21      F     1.78978206     2.08225301    -1.54304612
     22      F     2.65889016     3.04614703     0.37558049
 
Total System Charge             0.00000
 
 *** GOStep13 ***

 Energy gradients wrt nuclear displacements
 ==========================================

     Atom      Cartesian (a.u./angstrom)
                 X         Y         Z
 ----------------------------------------
     1 H     0.001063 -0.000575  0.000502
     2 C    -0.006454 -0.002818 -0.001511
     3 C     0.004019  0.002436  0.000617
     4 C    -0.006399 -0.000274 -0.000349
     5 O     0.005808 -0.008109 -0.000170
     6 H    -0.000049  0.000226  0.000072
     7 C     0.000360 -0.000566  0.000338
     8 C     0.000332 -0.000190 -0.000245
     9 C    -0.001411 -0.000585 -0.000167
    10 C     0.007337  0.001953  0.002104
    11 C    -0.002680 -0.000513 -0.000652
    12 C     0.001313  0.001125  0.000460
    13 H    -0.000058 -0.000356  0.000006
    14 H     0.000358 -0.000151  0.000064
    15 H    -0.000560  0.000018 -0.000207
    16 H    -0.000179  0.000221 -0.000171
    17 H    -0.000307 -0.000205 -0.000044
    18 H     0.001139 -0.000454  0.000542
    19 B     0.000490  0.001616 -0.001970
    20 F    -0.003858  0.003454 -0.000023
    21 F    -0.000077  0.000790 -0.000181
    22 F    -0.000187  0.002956  0.000984
 ----------------------------------------
 Mulliken charges used for AMS results%charges...

 dE(predicted):    -0.30443E-03, dE(actual):    -0.44358E-03, Trust radius:    0.800000, all in a.u.
 
----------------------------------------------------------------------
Geometry Convergence after Step  13       (Hartree/Angstrom,Angstrom)
----------------------------------------------------------------------
current energy                               -4.95593878 Hartree
energy change                      -0.00044358     0.00022000    F
constrained gradient max            0.00813141     0.00100000    F
constrained gradient rms            0.00226863     0.00066667    F
gradient max                        0.00813141
gradient rms                        0.00226863
cart. step max                      0.21180377     0.01000000    F
cart. step rms                      0.04906721     0.00666667    F
 
 
--------
Geometry
--------
Formula: C9H8BF3O
Atoms
  Index Symbol   x (angstrom)   y (angstrom)   z (angstrom)
      1      H    -0.24252433     0.12862927    -0.43922454
      2      C    -0.24439079    -1.93885128     0.15425646
      3      C     0.29164300    -0.69541823     0.01830229
      4      C     1.62772199    -0.45151672     0.48929931
      5      O     2.26466758     0.61472546     0.43351115
      6      H     0.38846562    -2.69757030     0.61795936
      7      C    -4.06518125    -3.42265075    -1.01687630
      8      C    -3.08843004    -4.28476016    -0.51582467
      9      C    -1.85149359    -3.77935461    -0.13013100
     10      C    -1.55688548    -2.40374301    -0.24781361
     11      C    -2.56058553    -1.54707964    -0.75209126
     12      C    -3.79671000    -2.05349473    -1.12912337
     13      H    -3.29218762    -5.34816392    -0.42456727
     14      H    -1.09275137    -4.45248433     0.26150444
     15      H    -2.37680782    -0.48130058    -0.84153913
     16      H    -4.55948868    -1.38134728    -1.51289514
     17      H    -5.03471157    -3.81212917    -1.31660073
     18      H     2.15312760    -1.31188622     0.93966211
     19      B     1.67214100     2.24531456    -0.22505920
     20      F     0.48622869     2.42462865     0.42838356
     21      F     1.57797829     1.97074857    -1.55407687
     22      F     2.69847591     3.02540721     0.17442843
 
Total System Charge             0.00000
 
 *** GOStep14 ***

 Energy gradients wrt nuclear displacements
 ==========================================

     Atom      Cartesian (a.u./angstrom)
                 X         Y         Z
 ----------------------------------------
     1 H     0.000292  0.000210 -0.000160
     2 C    -0.002472 -0.000750 -0.000813
     3 C     0.001294 -0.000203 -0.000442
     4 C    -0.001071  0.000332  0.002394
     5 O     0.002587 -0.006317 -0.001123
     6 H    -0.000163  0.000432  0.000313
     7 C    -0.000609 -0.000927 -0.000097
     8 C     0.000092 -0.000944 -0.000027
     9 C    -0.000499 -0.001008  0.000134
    10 C     0.003489  0.000667  0.000705
    11 C    -0.000767  0.000505  0.000238
    12 C     0.000270  0.001506  0.000016
    13 H     0.000132  0.000464 -0.000163
    14 H    -0.000183  0.000336 -0.000140
    15 H    -0.000389 -0.000256  0.000054
    16 H     0.000296 -0.000359  0.000089
    17 H     0.000367  0.000205  0.000092
    18 H    -0.000158  0.000664 -0.000582
    19 B    -0.002022  0.007178 -0.004483
    20 F     0.000195  0.000343 -0.000160
    21 F     0.000629 -0.000874  0.003376
    22 F    -0.001310 -0.001204  0.000780
 ----------------------------------------
 Mulliken charges used for AMS results%charges...

 dE(predicted):    -0.31404E-03, dE(actual):    -0.34452E-03, Trust radius:    0.800000, all in a.u.
 
----------------------------------------------------------------------
Geometry Convergence after Step  14       (Hartree/Angstrom,Angstrom)
----------------------------------------------------------------------
current energy                               -4.95628331 Hartree
energy change                      -0.00034452     0.00022000    F
constrained gradient max            0.00716512     0.00100000    F
constrained gradient rms            0.00164410     0.00066667    F
gradient max                        0.00716512
gradient rms                        0.00164410
cart. step max                      0.12068788     0.01000000    F
cart. step rms                      0.02438144     0.00666667    F
 
 
--------
Geometry
--------
Formula: C9H8BF3O
Atoms
  Index Symbol   x (angstrom)   y (angstrom)   z (angstrom)
      1      H    -0.24211428     0.12085459    -0.43188754
      2      C    -0.23222116    -1.94680846     0.15315608
      3      C     0.29821230    -0.70128989     0.02263650
      4      C     1.63319010    -0.44806198     0.49715970
      5      O     2.25741324     0.62562688     0.44775222
      6      H     0.40197435    -2.70846499     0.61034055
      7      C    -4.06196769    -3.41107962    -1.02049772
      8      C    -3.09273830    -4.27734667    -0.51181470
      9      C    -1.85197246    -3.77983346    -0.12772105
     10      C    -1.54851829    -2.40768861    -0.25256733
     11      C    -2.54137690    -1.54699239    -0.76888690
     12      C    -3.78164623    -2.04589446    -1.14472755
     13      H    -3.30651269    -5.33779882    -0.41021596
     14      H    -1.10010588    -4.45611757     0.27135982
     15      H    -2.34633611    -0.48405070    -0.86675504
     16      H    -4.53781937    -1.37052721    -1.53564886
     17      H    -5.03417206    -3.79499230    -1.31834106
     18      H     2.16302763    -1.30476445     0.94819038
     19      B     1.64632702     2.23682779    -0.21804402
     20      F     0.51196827     2.43598799     0.51270910
     21      F     1.45729041     1.93692020    -1.53263409
     22      F     2.70639971     3.01319692     0.08792145
 
Total System Charge             0.00000
 
 *** GOStep15 ***

 Energy gradients wrt nuclear displacements
 ==========================================

     Atom      Cartesian (a.u./angstrom)
                 X         Y         Z
 ----------------------------------------
     1 H    -0.000324  0.000444 -0.000580
     2 C     0.000831  0.000602  0.000597
     3 C    -0.000926 -0.001536 -0.000882
     4 C     0.002733  0.000891  0.002813
     5 O     0.000510 -0.004970 -0.000069
     6 H     0.000178  0.000227  0.000041
     7 C    -0.000849 -0.000294  0.000028
     8 C     0.000171 -0.000675 -0.000416
     9 C     0.000471 -0.000532 -0.000104
    10 C    -0.001132 -0.000298  0.000122
    11 C     0.000758  0.000569 -0.000013
    12 C    -0.000700  0.000524 -0.000184
    13 H     0.000086  0.000579  0.000115
    14 H    -0.000295  0.000365 -0.000147
    15 H     0.000062 -0.000272  0.000247
    16 H     0.000271 -0.000435  0.000239
    17 H     0.000500  0.000262  0.000065
    18 H    -0.000767  0.000663 -0.000657
    19 B    -0.003293  0.009037 -0.004769
    20 F     0.002391 -0.001617 -0.000622
    21 F     0.000885 -0.000841  0.003650
    22 F    -0.001564 -0.002693  0.000525
 ----------------------------------------
 Mulliken charges used for AMS results%charges...

 dE(predicted):    -0.11324E-03, dE(actual):    -0.15404E-03, Trust radius:    0.800000, all in a.u.
 
----------------------------------------------------------------------
Geometry Convergence after Step  15       (Hartree/Angstrom,Angstrom)
----------------------------------------------------------------------
current energy                               -4.95643734 Hartree
energy change                      -0.00015404     0.00022000    T
constrained gradient max            0.00902690     0.00100000    F
constrained gradient rms            0.00175778     0.00066667    F
gradient max                        0.00902690
gradient rms                        0.00175778
cart. step max                      0.10024507     0.01000000    F
cart. step rms                      0.03247921     0.00666667    F
 
 
--------
Geometry
--------
Formula: C9H8BF3O
Atoms
  Index Symbol   x (angstrom)   y (angstrom)   z (angstrom)
      1      H    -0.25236896     0.12815129    -0.40364562
      2      C    -0.21695056    -1.95418983     0.12152970
      3      C     0.30324329    -0.70230082     0.01553058
      4      C     1.64452306    -0.45133163     0.47466999
      5      O     2.25883879     0.62936028     0.44850306
      6      H     0.42352037    -2.72231514     0.55882963
      7      C    -4.06585235    -3.40609314    -1.00830567
      8      C    -3.10945184    -4.26647824    -0.46651101
      9      C    -1.86071377    -3.77358433    -0.10282926
     10      C    -1.53967582    -2.41119057    -0.27514628
     11      C    -2.52038000    -1.55537899    -0.82063680
     12      C    -3.76654735    -2.05089058    -1.18231642
     13      H    -3.33716538    -5.32021348    -0.32933872
     14      H    -1.11764453    -4.44641333     0.31823043
     15      H    -2.30775462    -0.50064284    -0.96126582
     16      H    -4.51137383    -1.38004422    -1.60215944
     17      H    -5.04304725    -3.78762038    -1.29308204
     18      H     2.18801591    -1.31599549     0.89333990
     19      B     1.62687546     2.23610595    -0.17623379
     20      F     0.53201064     2.43312154     0.61295418
     21      F     1.36619598     1.95529876    -1.48511700
     22      F     2.70400439     3.01034799     0.07448441
 
Total System Charge             0.00000
 
 *** GOStep16 ***

 Energy gradients wrt nuclear displacements
 ==========================================

     Atom      Cartesian (a.u./angstrom)
                 X         Y         Z
 ----------------------------------------
     1 H    -0.000630  0.000271 -0.000184
     2 C     0.003616  0.001093  0.000448
     3 C    -0.002364 -0.001984 -0.000778
     4 C     0.004185  0.001517  0.002081
     5 O     0.000196 -0.004515  0.001362
     6 H     0.000037  0.000139  0.000541
     7 C    -0.000361  0.000314 -0.000390
     8 C    -0.000084 -0.000047  0.000241
     9 C     0.000775  0.000302  0.000473
    10 C    -0.003902 -0.001099 -0.001891
    11 C     0.000920  0.000559  0.000890
    12 C    -0.001066 -0.000547 -0.000339
    13 H     0.000176  0.000269 -0.000152
    14 H    -0.000224  0.000180 -0.000158
    15 H     0.000400 -0.000265  0.000223
    16 H     0.000218 -0.000285  0.000057
    17 H     0.000338  0.000158  0.000168
    18 H    -0.000760  0.000221 -0.000575
    19 B    -0.003838  0.008622 -0.003378
    20 F     0.002750 -0.002148 -0.001114
    21 F     0.000871 -0.000162  0.002565
    22 F    -0.001251 -0.002594 -0.000092
 ----------------------------------------
 Mulliken charges used for AMS results%charges...

 dE(predicted):    -0.95433E-04, dE(actual):    -0.13660E-03, Trust radius:    0.800000, all in a.u.
 
----------------------------------------------------------------------
Geometry Convergence after Step  16       (Hartree/Angstrom,Angstrom)
----------------------------------------------------------------------
current energy                               -4.95657394 Hartree
energy change                      -0.00013660     0.00022000    T
constrained gradient max            0.00860715     0.00100000    F
constrained gradient rms            0.00185885     0.00066667    F
gradient max                        0.00860715
gradient rms                        0.00185885
cart. step max                      0.11074895     0.01000000    F
cart. step rms                      0.03488860     0.00666667    F
 
 
--------
Geometry
--------
Formula: C9H8BF3O
Atoms
  Index Symbol   x (angstrom)   y (angstrom)   z (angstrom)
      1      H    -0.26706236     0.14914790    -0.36180784
      2      C    -0.21183002    -1.94966342     0.09442041
      3      C     0.30012467    -0.69196619     0.01754624
      4      C     1.65030270    -0.45298644     0.45314340
      5      O     2.26479625     0.62922025     0.44982613
      6      H     0.44216924    -2.72868264     0.49019660
      7      C    -4.06955331    -3.40898368    -0.99592289
      8      C    -3.11985426    -4.25734601    -0.42461028
      9      C    -1.86619953    -3.76204229    -0.08183584
     10      C    -1.53720256    -2.40740364    -0.29499619
     11      C    -2.50769077    -1.56614245    -0.87972058
     12      C    -3.75759640    -2.06474700    -1.22340302
     13      H    -3.35761220    -5.30283153    -0.24567700
     14      H    -1.12895199    -4.42541842     0.36416640
     15      H    -2.28443551    -0.52075268    -1.06632229
     16      H    -4.49559219    -1.40388333    -1.67078351
     17      H    -5.05006117    -3.79308980    -1.26643151
     18      H     2.20273527    -1.32808515     0.83745891
     19      B     1.62193061     2.22850733    -0.12978468
     20      F     0.57794223     2.44297480     0.72370313
     21      F     1.27239425     1.96396966    -1.42498283
     22      F     2.71954867     2.99790752     0.04730125
 
Total System Charge             0.00000
 
 *** GOStep17 ***

 Energy gradients wrt nuclear displacements
 ==========================================

     Atom      Cartesian (a.u./angstrom)
                 X         Y         Z
 ----------------------------------------
     1 H    -0.000065 -0.000065 -0.000211
     2 C     0.003998  0.001995  0.002756
     3 C    -0.002372 -0.001477 -0.000223
     4 C     0.003682  0.001651 -0.000063
     5 O     0.000980 -0.004585  0.002908
     6 H     0.000139 -0.000321 -0.000785
     7 C     0.000085  0.000667  0.000094
     8 C    -0.000145  0.000150 -0.000073
     9 C     0.001352  0.000724 -0.000712
    10 C    -0.005631 -0.000925 -0.000959
    11 C     0.001089 -0.000162 -0.000606
    12 C    -0.000762 -0.000978 -0.000039
    13 H    -0.000079  0.000037  0.000268
    14 H    -0.000151 -0.000010  0.000009
    15 H     0.000172 -0.000347  0.000065
    16 H     0.000020  0.000025  0.000202
    17 H     0.000171 -0.000110 -0.000032
    18 H    -0.000574 -0.000248 -0.000122
    19 B    -0.003573  0.006626 -0.001795
    20 F     0.001850 -0.001497 -0.001155
    21 F     0.000432  0.000310  0.001073
    22 F    -0.000619 -0.001460 -0.000601
 ----------------------------------------
 Mulliken charges used for AMS results%charges...

 dE(predicted):    -0.99391E-04, dE(actual):    -0.10528E-03, Trust radius:    0.800000, all in a.u.
 
----------------------------------------------------------------------
Geometry Convergence after Step  17       (Hartree/Angstrom,Angstrom)
----------------------------------------------------------------------
current energy                               -4.95667922 Hartree
energy change                      -0.00010528     0.00022000    T
constrained gradient max            0.00661014     0.00100000    F
constrained gradient rms            0.00171815     0.00066667    F
gradient max                        0.00661014
gradient rms                        0.00171815
cart. step max                      0.03679235     0.01000000    F
cart. step rms                      0.01304735     0.00666667    F
 
 
--------
Geometry
--------
Formula: C9H8BF3O
Atoms
  Index Symbol   x (angstrom)   y (angstrom)   z (angstrom)
      1      H    -0.28039146     0.15894347    -0.34821886
      2      C    -0.21034029    -1.94912137     0.06838626
      3      C     0.29367705    -0.68688229     0.00928831
      4      C     1.64348615    -0.45196668     0.44295509
      5      O     2.25559594     0.63228763     0.45627149
      6      H     0.44720250    -2.72819499     0.45807380
      7      C    -4.07354146    -3.41573943    -0.98657520
      8      C    -3.12416410    -4.25779377    -0.40580469
      9      C    -1.86909936    -3.75964789    -0.07248257
     10      C    -1.53708207    -2.40909604    -0.30773567
     11      C    -2.50914191    -1.57326242    -0.89776182
     12      C    -3.75994454    -2.07498334    -1.23240585
     13      H    -3.36236675    -5.30125501    -0.21446898
     14      H    -1.13066937    -4.41906539     0.37809075
     15      H    -2.28428822    -0.53138052    -1.10311464
     16      H    -4.49680421    -1.41968618    -1.69042272
     17      H    -5.05538864    -3.80206188    -1.25031654
     18      H     2.19977957    -1.33021592     0.81579979
     19      B     1.63712991     2.22951562    -0.10938750
     20      F     0.59208287     2.45925745     0.74224378
     21      F     1.28233540     1.98341720    -1.40980437
     22      F     2.74023461     2.99463455     0.06887414
 
Total System Charge             0.00000
 
 *** GOStep18 ***

 Energy gradients wrt nuclear displacements
 ==========================================

     Atom      Cartesian (a.u./angstrom)
                 X         Y         Z
 ----------------------------------------
     1 H    -0.000055 -0.000237  0.000391
     2 C     0.004284  0.001634 -0.000611
     3 C    -0.002099 -0.000520  0.000522
     4 C     0.002712  0.000637 -0.001029
     5 O    -0.000328 -0.004699  0.003062
     6 H    -0.000503 -0.000307  0.000143
     7 C     0.000585  0.000492  0.000123
     8 C    -0.000215  0.000376 -0.000438
     9 C     0.000477  0.001197  0.000481
    10 C    -0.004076 -0.000934 -0.000865
    11 C     0.000686 -0.000307  0.000479
    12 C    -0.000015 -0.001076  0.000256
    13 H    -0.000092 -0.000362  0.000062
    14 H     0.000098 -0.000267  0.000046
    15 H     0.000041  0.000035 -0.000183
    16 H    -0.000065  0.000214 -0.000232
    17 H    -0.000254 -0.000246  0.000022
    18 H    -0.000108 -0.000876  0.000454
    19 B    -0.001752  0.004158 -0.000258
    20 F     0.000757 -0.000375 -0.000720
    21 F    -0.000230  0.000955 -0.000896
    22 F     0.000154  0.000508 -0.000809
 ----------------------------------------
 Mulliken charges used for AMS results%charges...

 dE(predicted):    -0.62340E-04, dE(actual):    -0.66493E-04, Trust radius:    0.800000, all in a.u.
 
----------------------------------------------------------------------
Geometry Convergence after Step  18       (Hartree/Angstrom,Angstrom)
----------------------------------------------------------------------
current energy                               -4.95674571 Hartree
energy change                      -0.00006649     0.00022000    T
constrained gradient max            0.00472062     0.00100000    F
constrained gradient rms            0.00132716     0.00066667    F
gradient max                        0.00472062
gradient rms                        0.00132716
cart. step max                      0.05486964     0.01000000    F
cart. step rms                      0.01217602     0.00666667    F
 
 
--------
Geometry
--------
Formula: C9H8BF3O
Atoms
  Index Symbol   x (angstrom)   y (angstrom)   z (angstrom)
      1      H    -0.27617830     0.16341871    -0.35925218
      2      C    -0.21215443    -1.94436404     0.06838457
      3      C     0.29453561    -0.68245986     0.00323463
      4      C     1.64246188    -0.45128717     0.43734000
      5      O     2.26084161     0.63082785     0.44850444
      6      H     0.44428596    -2.72050626     0.46561622
      7      C    -4.06945823    -3.41562135    -0.99113068
      8      C    -3.12341334    -4.25473336    -0.40040195
      9      C    -1.86916613    -3.75560815    -0.06601693
     10      C    -1.53362296    -2.40660762    -0.30996972
     11      C    -2.50578468    -1.57234567    -0.90383188
     12      C    -3.75494158    -2.07530860    -1.24092132
     13      H    -3.36161229    -5.29786070    -0.20768950
     14      H    -1.13226572    -4.41297578     0.39010291
     15      H    -2.28184384    -0.53052416    -1.11120367
     16      H    -4.49060922    -1.42189233    -1.70349628
     17      H    -5.05061916    -3.80247375    -1.25669473
     18      H     2.19908150    -1.32959111     0.80861828
     19      B     1.63273502     2.21505152    -0.09725683
     20      F     0.61695153     2.46326821     0.78747360
     21      F     1.22746577     1.96555309    -1.38430621
     22      F     2.74161261     2.98374331     0.03438123
 
Total System Charge             0.00000
 
 *** GOStep19 ***

 Energy gradients wrt nuclear displacements
 ==========================================

     Atom      Cartesian (a.u./angstrom)
                 X         Y         Z
 ----------------------------------------
     1 H     0.000037  0.000133  0.000439
     2 C     0.000687  0.000594 -0.001117
     3 C    -0.000209  0.000433  0.000134
     4 C     0.000035  0.000501 -0.000968
     5 O     0.001307 -0.005361  0.002100
     6 H    -0.000619 -0.000167  0.000241
     7 C     0.000571 -0.000110 -0.000341
     8 C    -0.000408  0.000246  0.000534
     9 C    -0.000358  0.000613  0.001009
    10 C     0.000626 -0.000462 -0.001213
    11 C     0.000004 -0.000223  0.000830
    12 C     0.000496 -0.000249  0.000162
    13 H     0.000065 -0.000397 -0.000334
    14 H     0.000140 -0.000250  0.000036
    15 H    -0.000181  0.000253 -0.000173
    16 H    -0.000078  0.000202 -0.000237
    17 H    -0.000336 -0.000164  0.000118
    18 H     0.000287 -0.000719  0.000341
    19 B    -0.001314  0.002798 -0.000331
    20 F    -0.000437  0.001082 -0.000100
    21 F    -0.000555  0.000136 -0.000611
    22 F     0.000240  0.001112 -0.000520
 ----------------------------------------
 Mulliken charges used for AMS results%charges...

 dE(predicted):    -0.57474E-04, dE(actual):    -0.57713E-04, Trust radius:    0.800000, all in a.u.
 
----------------------------------------------------------------------
Geometry Convergence after Step  19       (Hartree/Angstrom,Angstrom)
----------------------------------------------------------------------
current energy                               -4.95680343 Hartree
energy change                      -0.00005771     0.00022000    T
constrained gradient max            0.00538231     0.00100000    F
constrained gradient rms            0.00094891     0.00066667    F
gradient max                        0.00538231
gradient rms                        0.00094891
cart. step max                      0.05311811     0.01000000    F
cart. step rms                      0.01809894     0.00666667    F
 
 
--------
Geometry
--------
Formula: C9H8BF3O
Atoms
  Index Symbol   x (angstrom)   y (angstrom)   z (angstrom)
      1      H    -0.27907249     0.16169209    -0.38048256
      2      C    -0.22548095    -1.93900121     0.09023628
      3      C     0.28470773    -0.67832963     0.00575956
      4      C     1.62795626    -0.44468903     0.44442904
      5      O     2.24935223     0.63725438     0.44600306
      6      H     0.43452295    -2.70989028     0.49229732
      7      C    -4.06669548    -3.42116531    -0.99841061
      8      C    -3.11442923    -4.26460492    -0.42373545
      9      C    -1.86418290    -3.76323362    -0.07891224
     10      C    -1.53791673    -2.40649957    -0.29542884
     11      C    -2.51673261    -1.56858483    -0.87541204
     12      C    -3.76202122    -2.07352551    -1.22197491
     13      H    -3.34540776    -5.31266990    -0.24973381
     14      H    -1.12291060    -4.42312224     0.36683078
     15      H    -2.30274159    -0.51969387    -1.05808556
     16      H    -4.50385553    -1.41645479    -1.66960876
     17      H    -5.04504560    -3.80950265    -1.27255736
     18      H     2.18384907    -1.31627744     0.83208827
     19      B     1.65396413     2.20457621    -0.11322823
     20      F     0.61185333     2.47328632     0.73941997
     21      F     1.27952700     1.96081961    -1.41343763
     22      F     2.75906161     2.97731897     0.04542773
 
Total System Charge             0.00000
 
 *** GOStep20 ***

 Energy gradients wrt nuclear displacements
 ==========================================

     Atom      Cartesian (a.u./angstrom)
                 X         Y         Z
 ----------------------------------------
     1 H     0.000142 -0.000210 -0.000185
     2 C    -0.005069 -0.000535  0.000518
     3 C     0.001229  0.001480  0.000359
     4 C    -0.001824 -0.001139 -0.001817
     5 O     0.000075 -0.004391  0.001670
     6 H     0.000171 -0.000279 -0.000824
     7 C     0.000325 -0.000431 -0.000043
     8 C    -0.000195  0.000446  0.000705
     9 C    -0.000989 -0.000389 -0.000066
    10 C     0.005887  0.000513  0.000568
    11 C    -0.000091 -0.000619  0.000041
    12 C     0.000899  0.000355  0.000203
    13 H     0.000046 -0.000406 -0.000142
    14 H     0.000343 -0.000266  0.000182
    15 H    -0.000162  0.000824 -0.000144
    16 H    -0.000339  0.000282 -0.000186
    17 H    -0.000468 -0.000120 -0.000161
    18 H     0.000929 -0.000772  0.000559
    19 B     0.000977  0.000296  0.000316
    20 F    -0.001212  0.002311  0.000472
    21 F    -0.000959  0.000697 -0.001816
    22 F     0.000286  0.002354 -0.000210
 ----------------------------------------
 Mulliken charges used for AMS results%charges...

 dE(predicted):    -0.80424E-04, dE(actual):    -0.79677E-04, Trust radius:    0.800000, all in a.u.
 
----------------------------------------------------------------------
Geometry Convergence after Step  20       (Hartree/Angstrom,Angstrom)
----------------------------------------------------------------------
current energy                               -4.95688310 Hartree
energy change                      -0.00007968     0.00022000    T
constrained gradient max            0.00588064     0.00100000    F
constrained gradient rms            0.00135773     0.00066667    F
gradient max                        0.00588064
gradient rms                        0.00135773
cart. step max                      0.05105906     0.01000000    F
cart. step rms                      0.01882577     0.00666667    F
 
 
--------
Geometry
--------
Formula: C9H8BF3O
Atoms
  Index Symbol   x (angstrom)   y (angstrom)   z (angstrom)
      1      H    -0.26504028     0.15896031    -0.40703484
      2      C    -0.23005634    -1.93321818     0.10362249
      3      C     0.28823604    -0.67613093     0.00425170
      4      C     1.62331970    -0.43819908     0.46190628
      5      O     2.24743458     0.64318097     0.45412869
      6      H     0.42222110    -2.69785472     0.52992545
      7      C    -4.06259951    -3.42081251    -1.00605439
      8      C    -3.10113933    -4.26876006    -0.45369516
      9      C    -1.85661001    -3.76344763    -0.09522709
     10      C    -1.54158796    -2.39952728    -0.28247447
     11      C    -2.52777070    -1.55868656    -0.84733971
     12      C    -3.76991025    -2.06602070    -1.20118638
     13      H    -3.32423663    -5.32127827    -0.29789047
     14      H    -1.10982633    -4.42559258     0.33764943
     15      H    -2.32320116    -0.50435516    -1.00702650
     16      H    -4.51905221    -1.40587483    -1.63151181
     17      H    -5.03825508    -3.81110904    -1.28640801
     18      H     2.17133043    -1.30142164     0.87669222
     19      B     1.65822623     2.18350122    -0.13306386
     20      F     0.60246314     2.46286783     0.70150812
     21      F     1.29883908     1.92316372    -1.43559515
     22      F     2.75551712     2.96831792     0.02630747
 
Total System Charge             0.00000
 
 *** GOStep21 ***

 Energy gradients wrt nuclear displacements
 ==========================================

     Atom      Cartesian (a.u./angstrom)
                 X         Y         Z
 ----------------------------------------
     1 H     0.000200 -0.000032 -0.000178
     2 C    -0.006193 -0.002264 -0.002203
     3 C     0.002406  0.001771  0.000602
     4 C    -0.002008 -0.001029 -0.001510
     5 O    -0.000077 -0.003057  0.001404
     6 H     0.000438  0.000172  0.000001
     7 C    -0.000091 -0.000433  0.000536
     8 C     0.000603  0.000187 -0.000737
     9 C    -0.001165 -0.000694 -0.000537
    10 C     0.006438  0.001507  0.003522
    11 C    -0.000717 -0.000678 -0.000796
    12 C     0.000702  0.000740  0.000022
    13 H    -0.000073 -0.000166  0.000359
    14 H     0.000355 -0.000109  0.000227
    15 H    -0.000222  0.000562 -0.000127
    16 H    -0.000382  0.000133 -0.000064
    17 H    -0.000314 -0.000001 -0.000202
    18 H     0.000814 -0.000346  0.000666
    19 B     0.001134 -0.000046  0.000148
    20 F    -0.000751  0.001702  0.000363
    21 F    -0.000950  0.000465 -0.001397
    22 F    -0.000145  0.001618 -0.000098
 ----------------------------------------
 Mulliken charges used for AMS results%charges...

 dE(predicted):    -0.59542E-04, dE(actual):    -0.63656E-04, Trust radius:    0.800000, all in a.u.
 
----------------------------------------------------------------------
Geometry Convergence after Step  21       (Hartree/Angstrom,Angstrom)
----------------------------------------------------------------------
current energy                               -4.95694676 Hartree
energy change                      -0.00006366     0.00022000    T
constrained gradient max            0.00643193     0.00100000    F
constrained gradient rms            0.00151662     0.00066667    F
gradient max                        0.00643193
gradient rms                        0.00151662
cart. step max                      0.04299184     0.01000000    F
cart. step rms                      0.01407248     0.00666667    F
 
 
--------
Geometry
--------
Formula: C9H8BF3O
Atoms
  Index Symbol   x (angstrom)   y (angstrom)   z (angstrom)
      1      H    -0.26197992     0.15926277    -0.40583787
      2      C    -0.23258866    -1.92899163     0.11822292
      3      C     0.28862565    -0.67362506     0.01343657
      4      C     1.62354585    -0.43301227     0.47129531
[...]
    20     F       0.000833  -0.000416  -0.000194
    21     F       0.000455  -0.000177   0.000811
    22     F      -0.000239  -0.000912   0.000126
 
 Mode:    55      Frequency (cm-1):     1571.2197     Intensity (km/mol):        5.6033
 Index  Atom      ---- Displacements (x/y/z) ----
     1     H      -0.150203  -0.078907  -0.037704
     2     C      -0.076200  -0.060830  -0.014654
     3     C       0.061528   0.077513   0.005227
     4     C       0.018128   0.040267  -0.002717
     5     O      -0.021516  -0.040167   0.001377
     6     H      -0.000744  -0.001225   0.000205
     7     C      -0.094648   0.322839  -0.106826
     8     C       0.081055  -0.164351   0.066838
     9     C       0.058586   0.188204  -0.019473
    10     C       0.098625  -0.198226   0.080917
    11     C      -0.141319   0.110324  -0.077514
    12     C       0.007614  -0.199124   0.046657
    13     H      -0.150872  -0.148349  -0.024079
    14     H      -0.246981  -0.176771  -0.054029
    15     H       0.333841   0.047297   0.114871
    16     H       0.213044   0.020661   0.075752
    17     H       0.150814  -0.485332   0.163852
    18     H       0.037339   0.056911   0.000842
    19     B       0.001685  -0.000590   0.000777
    20     F      -0.000797   0.000213   0.000171
    21     F      -0.000471   0.000002  -0.000701
    22     F       0.000082   0.000904  -0.000186
 
 Mode:    56      Frequency (cm-1):     1596.4271     Intensity (km/mol):      377.9838
 Index  Atom      ---- Displacements (x/y/z) ----
     1     H      -0.195207  -0.125758  -0.043783
     2     C      -0.054197  -0.056731  -0.007486
     3     C       0.061754   0.072551   0.006366
     4     C      -0.105839  -0.144135  -0.005935
     5     O       0.047229   0.077351  -0.000463
     6     H       0.104749   0.091346   0.019458
     7     C      -0.114158  -0.047159  -0.032731
     8     C       0.237365   0.034359   0.081934
     9     C      -0.208455  -0.153872  -0.044627
    10     C       0.150794   0.080478   0.038881
    11     C      -0.251130  -0.045677  -0.084343
    12     C       0.215128   0.154052   0.047142
    13     H      -0.255527   0.118228  -0.122429
    14     H       0.159045   0.297041  -0.005570
    15     H       0.324622  -0.136402   0.151615
    16     H      -0.149802  -0.300548   0.009559
    17     H      -0.124995  -0.057227  -0.034675
    18     H       0.204875   0.104089   0.052938
    19     B      -0.006388   0.021247  -0.007440
    20     F       0.004038  -0.002941  -0.001087
    21     F       0.001981  -0.001629   0.004426
    22     F      -0.002256  -0.005336   0.000428
 
 Mode:    57      Frequency (cm-1):     1608.5938     Intensity (km/mol):       10.9219
 Index  Atom      ---- Displacements (x/y/z) ----
     1     H       0.281373   0.038673   0.096824
     2     C       0.254074   0.347188   0.016199
     3     C      -0.148556  -0.251838   0.002113
     4     C      -0.171348  -0.250047  -0.005564
     5     O       0.115893   0.192654  -0.001799
     6     H      -0.515756  -0.347443  -0.115994
     7     C      -0.034345   0.061047  -0.026408
     8     C       0.060438  -0.034064   0.030272
     9     C      -0.010409   0.061049  -0.017354
    10     C      -0.071012  -0.166043   0.010337
    11     C      -0.023249   0.042187  -0.018155
    12     C       0.012241  -0.033588   0.011972
    13     H      -0.100202  -0.011429  -0.035227
    14     H      -0.075468  -0.010812  -0.025905
    15     H      -0.025410   0.048822  -0.019692
    16     H       0.046756   0.005822   0.016368
    17     H       0.005430  -0.078840   0.019463
    18     H       0.102768  -0.025383   0.044541
    19     B      -0.012532   0.015435  -0.008350
    20     F       0.005957  -0.002401  -0.001401
    21     F       0.003333  -0.000725   0.005608
    22     F      -0.001237  -0.006272   0.001031
 
 Mode:    58      Frequency (cm-1):     1625.5759     Intensity (km/mol):      825.8250
 Index  Atom      ---- Displacements (x/y/z) ----
     1     H      -0.404112  -0.237876  -0.096574
     2     C      -0.085702  -0.150347   0.002159
     3     C       0.175100   0.203990   0.018671
     4     C      -0.250698  -0.318910  -0.019321
     5     O       0.103302   0.172329  -0.001746
     6     H       0.254919   0.162465   0.059274
     7     C       0.051610   0.005348   0.018307
     8     C      -0.118453  -0.009359  -0.042586
     9     C       0.104401   0.066161   0.024709
    10     C      -0.067403   0.015127  -0.028772
    11     C       0.119247  -0.003013   0.045593
    12     C      -0.089297  -0.053932  -0.021772
    13     H       0.113578  -0.048112   0.053459
    14     H      -0.072043  -0.146159   0.005044
    15     H      -0.108275   0.027381  -0.046900
    16     H       0.032219   0.096476  -0.009082
    17     H       0.050365   0.029473   0.012607
    18     H       0.408623   0.215656   0.103500
    19     B      -0.013211   0.040911  -0.014666
    20     F       0.008118  -0.005789  -0.002211
    21     F       0.003983  -0.003154   0.008860
    22     F      -0.004203  -0.010408   0.000908
 
 Mode:    59      Frequency (cm-1):     2984.0724     Intensity (km/mol):       36.0584
 Index  Atom      ---- Displacements (x/y/z) ----
     1     H       0.009456  -0.013884   0.006790
     2     C      -0.001638   0.001717  -0.001016
     3     C      -0.003405  -0.000428  -0.001181
     4     C       0.046688  -0.063130   0.032378
     5     O      -0.001219  -0.001542  -0.000092
     6     H       0.020530  -0.015973   0.011431
     7     C       0.000013  -0.000024   0.000010
     8     C       0.000010   0.000058  -0.000009
     9     C      -0.000006  -0.000023   0.000004
    10     C       0.000140   0.000509  -0.000062
    11     C      -0.000086  -0.000042  -0.000023
    12     C       0.000021   0.000070  -0.000007
    13     H      -0.000040  -0.000585   0.000115
    14     H       0.000863  -0.000759   0.000494
    15     H      -0.000187  -0.000347   0.000006
    16     H      -0.000236   0.000089  -0.000113
    17     H       0.000192   0.000096   0.000049
    18     H      -0.508386   0.771107  -0.372235
    19     B      -0.000132   0.001949  -0.000512
    20     F       0.000146  -0.000138  -0.000082
    21     F       0.000040  -0.000071   0.000201
    22     F      -0.000099  -0.000150  -0.000001
 
 Mode:    60      Frequency (cm-1):     3091.7301     Intensity (km/mol):        8.0855
 Index  Atom      ---- Displacements (x/y/z) ----
     1     H       0.022272  -0.030193   0.015403
     2     C       0.049258  -0.060806   0.032593
     3     C      -0.000083   0.005181  -0.001230
     4     C       0.001982  -0.001017   0.000984
     5     O      -0.000387  -0.000236  -0.000089
     6     H      -0.589608   0.700178  -0.383720
     7     C       0.000118   0.000164   0.000008
     8     C       0.000109  -0.000723   0.000199
     9     C      -0.004475   0.003695  -0.002500
    10     C      -0.001209  -0.001748  -0.000064
    11     C      -0.000556  -0.000779  -0.000035
    12     C      -0.000147  -0.000038  -0.000046
    13     H       0.002816   0.012488  -0.001683
    14     H       0.049680  -0.040431   0.027603
    15     H       0.002222   0.012001  -0.001823
    16     H       0.002094  -0.001285   0.001076
    17     H      -0.002260  -0.000605  -0.000715
    18     H      -0.017195   0.018723  -0.010863
    19     B       0.000099   0.000095   0.000015
    20     F      -0.000008  -0.000012  -0.000008
    21     F      -0.000013  -0.000009   0.000005
    22     F      -0.000017  -0.000008  -0.000004
 
 Mode:    61      Frequency (cm-1):     3129.8440     Intensity (km/mol):        1.6758
 Index  Atom      ---- Displacements (x/y/z) ----
     1     H      -0.000766   0.002068  -0.000776
     2     C       0.002897  -0.003120   0.001813
     3     C       0.000002  -0.000113   0.000027
     4     C       0.000127  -0.000106   0.000073
     5     O      -0.000030  -0.000014  -0.000008
     6     H      -0.034645   0.037852  -0.021795
     7     C      -0.033642  -0.013601  -0.009690
     8     C       0.008437   0.042860  -0.006259
     9     C       0.037599  -0.034739   0.021791
    10     C       0.001164   0.001220   0.000168
    11     C       0.000546   0.007413  -0.001433
    12     C       0.016551  -0.013901   0.009308
    13     H      -0.107195  -0.512924   0.072534
    14     H      -0.447290   0.397720  -0.255759
    15     H      -0.016705  -0.088623   0.013301
    16     H      -0.193265   0.170309  -0.110448
    17     H       0.400447   0.160262   0.115681
    18     H      -0.001099   0.001305  -0.000718
    19     B       0.000010  -0.000013   0.000007
    20     F      -0.000004   0.000002  -0.000001
    21     F      -0.000003   0.000002  -0.000003
    22     F      -0.000001   0.000002  -0.000001
 
 Mode:    62      Frequency (cm-1):     3137.4226     Intensity (km/mol):        0.9862
 Index  Atom      ---- Displacements (x/y/z) ----
     1     H      -0.011898   0.017128  -0.008465
     2     C      -0.001947   0.002265  -0.001257
     3     C       0.001271  -0.001637   0.000858
     4     C      -0.000282   0.000001  -0.000106
     5     O       0.000062   0.000071   0.000006
     6     H       0.023523  -0.024912   0.014618
     7     C      -0.042401  -0.016077  -0.012447
     8     C       0.001861  -0.002926   0.001349
     9     C      -0.035929   0.032117  -0.020586
    10     C      -0.000675  -0.001328   0.000041
    11     C       0.002224   0.013780  -0.002212
    12     C       0.032405  -0.027153   0.018209
    13     H       0.004267   0.031786  -0.005397
    14     H       0.414971  -0.368313   0.237134
    15     H      -0.034056  -0.169287   0.024629
    16     H      -0.373876   0.328638  -0.213475
    17     H       0.492848   0.196620   0.142509
    18     H       0.000929  -0.001043   0.000596
    19     B       0.000006  -0.000056   0.000015
    20     F      -0.000007   0.000004   0.000000
    21     F      -0.000004   0.000002  -0.000006
    22     F       0.000005   0.000009  -0.000000
 
 Mode:    63      Frequency (cm-1):     3147.1437     Intensity (km/mol):        8.9166
 Index  Atom      ---- Displacements (x/y/z) ----
     1     H       0.017631  -0.026692   0.012856
     2     C      -0.001397   0.001128  -0.000788
     3     C      -0.001450   0.002427  -0.001109
     4     C      -0.000086   0.000157  -0.000069
     5     O       0.000023   0.000023   0.000003
     6     H       0.015198  -0.016219   0.009473
     7     C      -0.027501  -0.014030  -0.007280
     8     C       0.011115   0.042610  -0.005193
     9     C      -0.021842   0.018190  -0.012221
    10     C      -0.000931  -0.001202  -0.000084
    11     C      -0.003161  -0.025828   0.004522
    12     C      -0.036581   0.034035  -0.021298
    13     H      -0.105973  -0.491160   0.068200
    14     H       0.237603  -0.209598   0.135493
    15     H       0.059207   0.306364  -0.045469
    16     H       0.426791  -0.378668   0.244467
    17     H       0.322421   0.132434   0.092393
    18     H       0.000956  -0.001395   0.000683
    19     B       0.000005  -0.000018   0.000007
    20     F       0.000001   0.000007   0.000003
    21     F       0.000004   0.000006  -0.000004
    22     F       0.000001   0.000002  -0.000000
 
 Mode:    64      Frequency (cm-1):     3155.9560     Intensity (km/mol):       12.1651
 Index  Atom      ---- Displacements (x/y/z) ----
     1     H       0.024987  -0.036918   0.017995
     2     C       0.000308  -0.000709   0.000279
     3     C      -0.002356   0.003350  -0.001664
     4     C       0.000225   0.000118   0.000057
     5     O      -0.000054  -0.000070  -0.000004
     6     H      -0.003976   0.003872  -0.002388
     7     C      -0.046633  -0.016912  -0.013862
     8     C      -0.011458  -0.058109   0.008481
     9     C       0.019218  -0.013694   0.010245
    10     C      -0.000228   0.001475  -0.000412
    11     C      -0.004761  -0.027034   0.004187
    12     C      -0.010721   0.013097  -0.006929
    13     H       0.134632   0.644064  -0.091064
    14     H      -0.193679   0.167740  -0.109762
    15     H       0.062641   0.315451  -0.046204
    16     H       0.136121  -0.124450   0.078775
    17     H       0.511652   0.202845   0.148233
    18     H      -0.000036  -0.000077   0.000004
    19     B       0.000013   0.000061  -0.000010
    20     F       0.000004  -0.000000   0.000001
    21     F       0.000004  -0.000000   0.000002
    22     F      -0.000009  -0.000012  -0.000001
 
 Mode:    65      Frequency (cm-1):     3164.8878     Intensity (km/mol):        3.4469
 Index  Atom      ---- Displacements (x/y/z) ----
     1     H       0.073988  -0.110433   0.053549
     2     C      -0.001212  -0.000208  -0.000412
     3     C      -0.006372   0.010088  -0.004739
     4     C       0.000041   0.000281  -0.000050
     5     O       0.000017   0.000065  -0.000009
     6     H       0.011101  -0.011451   0.006835
     7     C       0.015493   0.007617   0.004166
     8     C       0.001488   0.010373  -0.001724
     9     C      -0.002102   0.002161  -0.001266
    10     C      -0.002103   0.001148  -0.001046
    11     C      -0.015926  -0.072850   0.010115
    12     C       0.029068  -0.023348   0.016109
    13     H      -0.022702  -0.111588   0.016014
    14     H       0.021866  -0.019788   0.012590
    15     H       0.167645   0.827537  -0.119951
    16     H      -0.304184   0.266927  -0.173594
    17     H      -0.169024  -0.069562  -0.048412
    18     H       0.001627  -0.002360   0.001167
    19     B       0.000020  -0.000092   0.000030
    20     F       0.000003   0.000039   0.000009
    21     F       0.000014   0.000031  -0.000021
    22     F       0.000005   0.000011  -0.000001
 
 Mode:    66      Frequency (cm-1):     3194.3775     Intensity (km/mol):        2.2072
 Index  Atom      ---- Displacements (x/y/z) ----
     1     H       0.512576  -0.753149   0.368074
     2     C      -0.003326  -0.001555  -0.000897
     3     C      -0.043537   0.066572  -0.031853
     4     C       0.001276   0.001896   0.000033
     5     O      -0.000231  -0.000143  -0.000053
     6     H       0.021896  -0.031853   0.015603
     7     C      -0.000108  -0.000173  -0.000003
     8     C      -0.000006  -0.000073   0.000014
     9     C      -0.000293   0.000293  -0.000175
    10     C       0.000038   0.000138  -0.000018
    11     C       0.002731   0.012850  -0.001812
    12     C      -0.001618   0.000828  -0.000792
    13     H       0.000314   0.001058  -0.000116
    14     H       0.004567  -0.003896   0.002573
    15     H      -0.031092  -0.151638   0.021867
    16     H       0.013445  -0.011555   0.007619
    17     H       0.000715   0.000411   0.000175
    18     H       0.012361  -0.014205   0.007986
    19     B       0.000010  -0.000183   0.000046
    20     F       0.000049   0.000207   0.000040
    21     F       0.000094   0.000181  -0.000080
    22     F       0.000001  -0.000000   0.000000

PES point character: Geometry corresponds to a local minimum on the PES.




 ============================
 Statistical Thermal Analysis  ***  ideal gas assumed  ***
 ============================
  
 Pressure:                  1.000000 atm.
 Temperature:             298.150000 K



 Moments of Inertia [amu*bohr^2] and principal axis
 ==================================================

         933.4194       7340.2086       7911.0225
 ------------------------------------------------
           0.6755          0.6522         -0.3440
           0.7324         -0.6473          0.2112
           0.0849          0.3946          0.9149


 The rotational contribution to the molecular entropy includes
 a term, dependent on the symmetry number sigma. The results 
 reported below were computed using sigma = 1, determined from
 the point group symmetry of the input geometry (NOSYM). 
 If this is not the correct symmetry, try symmetrizing the molecule before
 running the calculation (note: linear molecules should be aligned along one
 of the Cartesian axes).
 Contributions from frequencies below 20 1/cm are not included in vibrational sums.
 Their contributions, if any, are reported separately.


     Temp                                                        Transl      Rotat     Vibrat     Total
     ----                                                        ------      -----     ------     -----

     298.15   Entropy (cal/mol-K):                               41.785     32.361     43.787    117.933
              Nuclear Internal Energy (kcal/mol):                 0.889      0.889    103.329    105.107
              Constant Volume Heat Capacity (cal/mol-K):          2.981      2.981     42.140     48.101
          (c) Constant Volume Heat Capacity (cal/mol-K):          2.981      2.981     38.017     43.978

       Summary of energy terms
                                                   hartree              eV         kcal/mol           kJ/mol
                                      --------------------     -----------       ----------      -----------
      Energy from Engine:               -4.957030877506226       -134.8877         -3110.58        -13014.68
      Nuclear Internal Energy:           0.167498126933321          4.5579           105.11           439.77
  (c) Nuclear Internal Energy:           0.165428900434187          4.5015           103.81           434.33
      Internal Energy U:                -4.789532750572906       -130.3298         -3005.48        -12574.92
      pV/n = RT:                         0.000944186013486          0.0257             0.59             2.48
      Enthalpy H:                       -4.788588564559420       -130.3041         -3004.89        -12572.44
      -T*S:                             -0.056033722656230         -1.5248           -35.16          -147.12
  (c) -T*S:                             -0.053487401447390         -1.4555           -33.56          -140.43
      Gibbs free energy:                -4.844622287215650       -131.8289         -3040.05        -12719.55
 
 
 
  (c) The properties marked with this symbol have been corrected using 'low vibrational frequency free rotor
      interpolation corrections'. For those terms all positive frequencies are used (also ones below 20 1/cm),
      but the contribution to the partition function of small vibrational frequencies is modified as described
      in the following paper:
      S. Grimme, 'Supramolecular Binding Thermodynamics by Dispersion-Corrected Density Functional Theory'
      (Chem. Eur. J. 2012, 18, 9955-9964)
      Configuration: Dampener Frequency          :   100.000 1/cm
                     Dampener Alpha              :     4.000
                     Averaging Moment of Inertia : 1.000E-44 kg m2

--------------
Atomic charges
--------------
  Index   Atom    Charge
      1      H   -0.1680
      2      C    0.3116
      3      C    0.1908
      4      C    0.6920
      5      O   -0.4787
      6      H   -0.2225
      7      C    0.2666
      8      C    0.2444
      9      C    0.3109
     10      C   -0.0105
     11      C    0.3107
     12      C    0.2459
     13      H   -0.2386
     14      H   -0.2489
     15      H   -0.2494
     16      H   -0.2342
     17      H   -0.2328
     18      H   -0.2506
     19      B    1.3992
     20      F   -0.5473
     21      F   -0.5472
     22      F   -0.5434


Dipole moment vector    (Debye):    -4.99213462   -8.94892416    0.21004933
              magnitude (Debye):    10.24933034


Final PES point is a local minimum. Geometry optimization successful!


AMS application finished. Exiting.
NORMAL TERMINATION
     Total cpu time:   34119.85
  Total system time:     117.55
 Total elapsed time:   68827.53
 WARNING: total elapsed time is much higher than the (CPU+system) time. 
 Make sure the machine is not oversubscribed and has enough memory, SCM_TMPDIR p
 oints to a fast file system, and the network is fast enough.
