

 Parallel Execution: Process Information
 ==============================================================================
 Rank   Node Name                              NodeID   MyNodeRank  NodeMaster
    0   node120                                   0          0          0
    1   node120                                   0          1         -1
    2   node120                                   0          2         -1
    3   node120                                   0          3         -1
 ==============================================================================


May use up to 122928MB of RAM as shared memory on node 0

 *******************************************************************************
 *                                                                             *
 *  --------------------------------                                           *
 *   Amsterdam Modeling Suite (AMS)              2021.102                      *
 *  --------------------------------                                           *
 *                                               r95042 2021-06-07             *
 *                                                                             *
 *                                                                             *
 *                              =================                              *
 *                              |               |                              *
 *                              |     A M S     |                              *
 *                              |               |                              *
 *                              =================                              *
 *                                                                             *
 *                                                                             *
 *   Online information and documentation:  https://www.scm.com/support/       *
 *   E-mail:  support@scm.com   info@scm.com                                   *
 *                                                                             *
 *   Scientific publications using AMS results must be properly referenced     *
 *   See the User Manuals (or the web site) for recommended citations          *
 *   The terms and conditions of the End User License Agreement apply to       *
 *   the use of AMS, https://www.scm.com/license-terms/                        *
 *                                                                             *
 **********************  x86_64_linux_intel / intelmpi  ************************
 
 Licensed to: VU/FEW (+ SARA) / ALGEMEEN / Amsterdam / THE NETHERLANDS
 SCM User ID: u7668
  
 AMS 2021.102  RunTime: Jan28-2022 10:52:14  ShM Nodes: 1  Procs: 4

 AMS jobname: 8.achiral_catalyst.H_tBu_AlF3.Rsub
 AMS jobid  : 1948079650

 Start   directory: /scistor/tc/yhk800/MasterProject/calculations/achiral_catalyst_H_tBu_AlF3/8.achiral_catalyst.H_tBu_AlF3.Rsub/
 Results directory: /scistor/tc/yhk800/MasterProject/calculations/achiral_catalyst_H_tBu_AlF3/8.achiral_catalyst.H_tBu_AlF3.Rsub/
 Scratch directory: /scratch/5502/amstmp_8.achiral_catalyst.H_tBu_AlF3.Rsub_kid0.1948079650/


 Communication costs MPI_COMM_WORLD:      0.341 usec per message,   0.0042 usec per 8-byte item
 Communication costs for intra-node:      0.857 usec per message,   0.0036 usec per 8-byte item

 RNG seed: 999183926 -1793170814 2056607674 90457455 -553530810 1871995728 -983068520 1462141875



                      ************************************************************************
                      *  ADF 2021.102  RunTime: Jan28-2022 10:52:15  ShM Nodes: 1  Procs: 4  *
                      ************************************************************************
  
       ***************************
       *  GEOMETRY OPTIMIZATION  *
       ***************************

Optimization Method                    Quasi Newton
Optimization Coordinates               Delocalized Coordinates
Optimize lattice                       F
 
 ------------------------------------------------------
 Convergence criteria (Hartree,Angstrom)
 ------------------------------------------------------
 Maximum gradient               0.001000000000
 Maximum rms gradient           0.000666666667
 Maximum step allowed           0.010000000000
 Maximum rms step allowed       0.006666666667
 Maximum energy change allowe   0.000200000000
 Maximum stress energy allowe   0.000500000000
 
Initial model Hessian                  Automatic Hessian
 
------------------------------------
Quasi-Newton Optimizer Parameters
------------------------------------
Hessian Update Method                  BFGS
Maximum number of steps                  250
First GDIIS cycle                          0
Maximum GDIIS vectors                      0
Trust radius (bohr)                        0.200000
Trust radius varies                        T
Constraints converged at all steps         T
Use projector                              T
 
 Rigid motions settings for: old optimizer
 Atomic rotations (x,y,z):     T T T
 Atomic translations (x,y,z):  T T T
 Tolerance:                   1.000000000000000E-006
 
--------
Geometry
--------
Formula: C7H12O
Atoms
  Index Symbol   x (angstrom)   y (angstrom)   z (angstrom)
      1      H     0.09039378    -1.80988465    -0.51555853
      2      C    -0.90781845    -0.00771283    -0.04943451
      3      C     0.18266548    -0.75219647    -0.26512258
      4      C     1.55928918    -0.22013974    -0.18291419
      5      O     2.58397592    -0.85270545    -0.38366642
      6      H    -0.82431619     1.04491294     0.20242594
      7      C    -3.32374457     0.41363550     0.39135762
      8      C    -2.32117593    -0.61137564    -0.14747452
      9      C    -2.35981774    -1.89202288     0.69191886
     10      C    -2.61263060    -0.92493763    -1.61814269
     11      H    -1.88230880    -1.63632475    -2.00533484
     12      H    -4.34029385     0.02030914     0.33794632
     13      H    -3.27622900     1.33298489    -0.19336308
     14      H    -3.09843206     0.65285811     1.43124519
     15      H    -3.34926797    -2.35016863     0.64695729
     16      H    -2.12786226    -1.66868988     1.73387776
     17      H    -1.62775366    -2.61007475     0.32064666
     18      H    -3.60918820    -1.35589554    -1.72804742
     19      H    -2.56021434    -0.01481311    -2.21671201
     20      H     1.61846764     0.81547669     0.07956726
 
Total System Charge             0.00000
 
 
----------------
ADF Engine Input
----------------
 
 NumericalQuality VeryGood
 SCF
 Converge 1.0e-6
 Iterations 99
 End
 SYMMETRY NOSYM
 XC
 GGA OLYP
 End
 basis
 core None
 type TZ2P
 End
 

 Title: *** (NO TITLE) ***

 Using automatic Hessian for delocalized coordinates.
 *** GOStep1 ***

 Energy gradients wrt nuclear displacements
 ==========================================

     Atom      Cartesian (a.u./angstrom)
                 X         Y         Z
 ----------------------------------------
     1 H    -0.006081 -0.004540 -0.000009
     2 C     0.019406  0.021774  0.004739
     3 C    -0.030640  0.002688  0.002514
     4 C     0.012151  0.042471  0.011120
     5 O     0.003130  0.007052  0.001500
     6 H    -0.003262 -0.006076 -0.000123
     7 C     0.000970  0.004242  0.001379
     8 C    -0.020194 -0.019954 -0.009201
     9 C     0.003346  0.002880 -0.000142
    10 C     0.000061  0.000648  0.003229
    11 H     0.000586  0.001598  0.005034
    12 H     0.004699 -0.001401 -0.001132
    13 H     0.003030 -0.005684  0.001068
    14 H     0.002386 -0.003078 -0.005122
    15 H     0.003785  0.002985 -0.000315
    16 H    -0.000533  0.002798 -0.004762
    17 H     0.003526  0.005741 -0.003810
    18 H     0.004672  0.001452  0.001489
    19 H     0.000639 -0.001674  0.006189
    20 H    -0.001677 -0.053922 -0.013646
 ----------------------------------------
 Mulliken charges used for AMS results%charges...
 
----------------------------------------------------------------------
Geometry Convergence after Step   1       (Hartree/Angstrom,Angstrom)
----------------------------------------------------------------------
current energy                               -4.01954790 Hartree
energy change                      -4.01954790     0.00020000    F
constrained gradient max            0.05391789     0.00100000    F
constrained gradient rms            0.01184989     0.00066667    F
gradient max                        0.05391789
gradient rms                        0.01184989
cart. step max                      0.17787474     0.01000000    F
cart. step rms                      0.06294480     0.00666667    F
 
 
--------
Geometry
--------
Formula: C7H12O
Atoms
  Index Symbol   x (angstrom)   y (angstrom)   z (angstrom)
      1      H     0.26826852    -1.82368092    -0.54333279
      2      C    -0.87215334    -0.09088665    -0.05684240
      3      C     0.26885588    -0.76824356    -0.27832601
      4      C     1.59011728    -0.12466229    -0.18788244
      5      O     2.65292724    -0.68976983    -0.39503482
      6      H    -0.79988610     0.96722295     0.18971206
      7      C    -3.26816112     0.42244700     0.39599431
      8      C    -2.30584017    -0.64989824    -0.14322232
      9      C    -2.45556752    -1.92943330     0.70224878
     10      C    -2.63469281    -0.94497073    -1.61922804
     11      H    -1.96005039    -1.69878411    -2.03013034
     12      H    -4.30469073     0.07871081     0.34247378
     13      H    -3.18823338     1.34527175    -0.18496203
     14      H    -3.04424523     0.65793018     1.43988903
     15      H    -3.48210519    -2.30280199     0.64533768
     16      H    -2.22416325    -1.73190352     1.75181722
     17      H    -1.79339806    -2.72308543     0.35419553
     18      H    -3.65925468    -1.31651796    -1.71421086
     19      H    -2.54341808    -0.04232563    -2.22902433
     20      H     1.56942951     0.93861679     0.09070011
 
Total System Charge             0.00000
 
 *** GOStep2 ***

 Energy gradients wrt nuclear displacements
 ==========================================

     Atom      Cartesian (a.u./angstrom)
                 X         Y         Z
 ----------------------------------------
     1 H    -0.002148  0.000535 -0.000602
     2 C     0.012239  0.013667  0.002517
     3 C    -0.001459 -0.001879 -0.000378
     4 C     0.001710  0.019345  0.004803
     5 O     0.002638 -0.000550 -0.000286
     6 H    -0.002583 -0.003521 -0.000738
     7 C     0.001459 -0.000125  0.000863
     8 C    -0.014493 -0.011106 -0.005593
     9 C    -0.002351  0.000409  0.000632
    10 C    -0.000272  0.000875  0.002766
    11 H    -0.000414  0.001272  0.001685
    12 H     0.001390 -0.000268 -0.000226
    13 H     0.001302 -0.002365  0.000348
    14 H     0.000756 -0.001190 -0.002014
    15 H     0.001297  0.000082  0.000209
    16 H    -0.000378  0.000706 -0.001812
    17 H    -0.001463  0.002995  0.000310
    18 H     0.001725  0.000243  0.000131
    19 H     0.000077 -0.000722  0.001944
    20 H     0.000969 -0.018403 -0.004559
 ----------------------------------------
 Mulliken charges used for AMS results%charges...

 dE(predicted):    -0.42826E-02, dE(actual):    -0.42542E-02, Trust radius:    0.400000, all in a.u.
 
----------------------------------------------------------------------
Geometry Convergence after Step   2       (Hartree/Angstrom,Angstrom)
----------------------------------------------------------------------
current energy                               -4.02380205 Hartree
energy change                      -0.00425415     0.00020000    F
constrained gradient max            0.01935672     0.00100000    F
constrained gradient rms            0.00511219     0.00066667    F
gradient max                        0.01935672
gradient rms                        0.00511219
cart. step max                      0.08345909     0.01000000    F
cart. step rms                      0.02147186     0.00666667    F
 
 
--------
Geometry
--------
Formula: C7H12O
Atoms
  Index Symbol   x (angstrom)   y (angstrom)   z (angstrom)
      1      H     0.30414555    -1.85956202    -0.45987369
      2      C    -0.86688581    -0.11263814    -0.06938421
      3      C     0.27949377    -0.79114138    -0.25528225
      4      C     1.58254891    -0.11779027    -0.18156931
      5      O     2.65544170    -0.67378988    -0.34985480
      6      H    -0.78117287     0.95144396     0.15922908
      7      C    -3.26277214     0.43036118     0.40285076
      8      C    -2.30160919    -0.64493516    -0.14645264
      9      C    -2.44708185    -1.93641541     0.68789966
     10      C    -2.64789380    -0.93620277    -1.62506846
     11      H    -1.99086878    -1.70056931    -2.04835685
     12      H    -4.30122905     0.08835694     0.35414123
     13      H    -3.19209445     1.35929683    -0.17279965
     14      H    -3.03919192     0.66536471     1.44868431
     15      H    -3.47857212    -2.30032125     0.63757875
     16      H    -2.20340896    -1.75741399     1.73946201
     17      H    -1.79706720    -2.73655589     0.32554043
     18      H    -3.68012456    -1.29339340    -1.70825196
     19      H    -2.55344744    -0.03654438    -2.24132209
     20      H     1.53552858     0.97568495     0.03300181
 
Total System Charge             0.00000
 
 *** GOStep3 ***

 Energy gradients wrt nuclear displacements
 ==========================================

     Atom      Cartesian (a.u./angstrom)
                 X         Y         Z
 ----------------------------------------
     1 H    -0.000933 -0.000183  0.001580
     2 C     0.009880  0.002595 -0.000481
     3 C     0.002392 -0.000924 -0.002869
     4 C    -0.000146  0.004477  0.002544
     5 O    -0.000736 -0.001237 -0.000865
     6 H    -0.001528 -0.001602  0.002740
     7 C    -0.000076  0.000424 -0.000259
     8 C    -0.010353 -0.002806 -0.003530
     9 C     0.001610  0.000910 -0.000225
    10 C     0.000743  0.000064  0.002786
    11 H    -0.000408  0.000220 -0.000446
    12 H    -0.000189  0.000437  0.000144
    13 H    -0.000244  0.000099  0.000208
    14 H    -0.000114  0.000007 -0.000184
    15 H     0.000109  0.000190 -0.000260
    16 H    -0.000065 -0.000210 -0.000043
    17 H    -0.000281 -0.000065  0.000749
    18 H     0.000142 -0.000316 -0.000307
    19 H    -0.000121 -0.000195 -0.000069
    20 H     0.000319 -0.001884 -0.001212
 ----------------------------------------
 Mulliken charges used for AMS results%charges...

 dE(predicted):    -0.51388E-03, dE(actual):    -0.55571E-03, Trust radius:    0.400000, all in a.u.
 
----------------------------------------------------------------------
Geometry Convergence after Step   3       (Hartree/Angstrom,Angstrom)
----------------------------------------------------------------------
current energy                               -4.02435776 Hartree
energy change                      -0.00055571     0.00020000    F
constrained gradient max            0.01035242     0.00100000    F
constrained gradient rms            0.00227712     0.00066667    F
gradient max                        0.01035242
gradient rms                        0.00227712
cart. step max                      0.07679094     0.01000000    F
cart. step rms                      0.01417319     0.00666667    F
 
 
--------
Geometry
--------
Formula: C7H12O
Atoms
  Index Symbol   x (angstrom)   y (angstrom)   z (angstrom)
      1      H     0.31517039    -1.86843733    -0.45028936
      2      C    -0.86813761    -0.11842228    -0.08515251
      3      C     0.27942289    -0.79945365    -0.25006745
      4      C     1.57546373    -0.11586694    -0.17836575
      5      O     2.65620262    -0.66563793    -0.30887507
      6      H    -0.77440329     0.95809149     0.08243814
      7      C    -3.25580543     0.43246211     0.40923992
      8      C    -2.29680082    -0.64321197    -0.14664394
      9      C    -2.44078847    -1.93973646     0.68341877
     10      C    -2.65642718    -0.93374517    -1.62568262
     11      H    -2.00959592    -1.70538136    -2.05312061
     12      H    -4.29419816     0.08821405     0.36672406
     13      H    -3.19188223     1.36246944    -0.16679465
     14      H    -3.02811566     0.66913094     1.45461931
     15      H    -3.47550081    -2.29731530     0.64311087
     16      H    -2.18384070    -1.76966494     1.73391700
     17      H    -1.80016318    -2.74287269     0.30812862
     18      H    -3.69333573    -1.28110304    -1.69930127
     19      H    -2.55925992    -0.03622494    -2.24574906
     20      H     1.51573388     0.97994129     0.05861772
 
Total System Charge             0.00000
 
 *** GOStep4 ***

 Energy gradients wrt nuclear displacements
 ==========================================

     Atom      Cartesian (a.u./angstrom)
                 X         Y         Z
 ----------------------------------------
     1 H     0.000034  0.000284 -0.001433
     2 C     0.005009 -0.002841  0.002146
     3 C     0.001594 -0.000527  0.002499
     4 C    -0.001487 -0.001837 -0.009345
     5 O    -0.000869 -0.001327  0.003006
     6 H    -0.000355  0.000768 -0.000390
     7 C     0.000053  0.000345 -0.000778
     8 C    -0.004107  0.001115 -0.001829
     9 C     0.001761  0.000836 -0.000044
    10 C     0.001268 -0.000379  0.002342
    11 H    -0.000112 -0.000353 -0.001091
    12 H    -0.000644  0.000340  0.000149
    13 H    -0.000615  0.000951 -0.000042
    14 H    -0.000404  0.000440  0.000726
    15 H    -0.000608 -0.000118 -0.000171
    16 H     0.000008 -0.000442  0.000720
    17 H     0.000331 -0.001116  0.000327
    18 H    -0.000577 -0.000400 -0.000258
    19 H    -0.000158  0.000180 -0.000806
    20 H    -0.000125  0.004080  0.004271
 ----------------------------------------
 Mulliken charges used for AMS results%charges...

 dE(predicted):    -0.19635E-03, dE(actual):    -0.93165E-04, Trust radius:    0.400000, all in a.u.
 
----------------------------------------------------------------------
Geometry Convergence after Step   4       (Hartree/Angstrom,Angstrom)
----------------------------------------------------------------------
current energy                               -4.02445093 Hartree
energy change                      -0.00009316     0.00020000    T
constrained gradient max            0.00934521     0.00100000    F
constrained gradient rms            0.00195929     0.00066667    F
gradient max                        0.00934521
gradient rms                        0.00195929
cart. step max                      0.08045062     0.01000000    F
cart. step rms                      0.02126619     0.00666667    F
 
 
--------
Geometry
--------
Formula: C7H12O
Atoms
  Index Symbol   x (angstrom)   y (angstrom)   z (angstrom)
      1      H     0.32429313    -1.88398552    -0.36983874
      2      C    -0.87125896    -0.12154455    -0.09306249
      3      C     0.27857148    -0.80844311    -0.21079570
      4      C     1.57061260    -0.11747178    -0.14881875
      5      O     2.65736097    -0.65261771    -0.28817612
      6      H    -0.77160232     0.96450768     0.00215252
      7      C    -3.24730737     0.42789084     0.42058025
      8      C    -2.29092462    -0.64445889    -0.14552477
      9      C    -2.44278803    -1.94903060     0.67251124
     10      C    -2.65875425    -0.92203153    -1.62800474
     11      H    -2.02040789    -1.69849795    -2.06012698
     12      H    -4.28534126     0.08221651     0.37864889
     13      H    -3.18512479     1.36121956    -0.15067690
     14      H    -3.01653172     0.65844622     1.46700999
     15      H    -3.48125658    -2.29678372     0.63743589
     16      H    -2.17494328    -1.79306638     1.72269942
     17      H    -1.81288159    -2.75347487     0.28097435
     18      H    -3.70014033    -1.25680558    -1.69911870
     19      H    -2.55352133    -0.02163732    -2.24306012
     20      H     1.49568450     0.99880402    -0.01463645
 
Total System Charge             0.00000
 
 *** GOStep5 ***

 Energy gradients wrt nuclear displacements
 ==========================================

     Atom      Cartesian (a.u./angstrom)
                 X         Y         Z
 ----------------------------------------
     1 H     0.001098  0.000499 -0.003460
     2 C    -0.002112 -0.004722  0.003468
     3 C    -0.001173  0.002045 -0.003324
     4 C    -0.000872 -0.011643  0.012824
     5 O    -0.000139  0.001089 -0.004487
     6 H     0.001163  0.002092 -0.002718
     7 C     0.000640 -0.000412 -0.001050
     8 C     0.003850  0.003765  0.000100
     9 C     0.000071  0.000293  0.000870
    10 C     0.001254 -0.000740  0.001393
    11 H     0.000149 -0.000646 -0.001068
    12 H    -0.000686 -0.000013  0.000019
    13 H    -0.000465  0.001079 -0.000358
    14 H    -0.000397  0.000506  0.001171
    15 H    -0.001111 -0.000563  0.000170
    16 H    -0.000002 -0.000402  0.001026
    17 H     0.000745 -0.001133 -0.000345
    18 H    -0.000929 -0.000305 -0.000064
    19 H    -0.000124  0.000477 -0.000983
    20 H    -0.000961  0.008736 -0.003185
 ----------------------------------------
 Mulliken charges used for AMS results%charges...

 dE(predicted):    -0.25223E-03, dE(actual):    -0.55659E-05, Trust radius:    0.053305, all in a.u.
 
----------------------------------------------------------------------
Geometry Convergence after Step   5       (Hartree/Angstrom,Angstrom)
----------------------------------------------------------------------
current energy                               -4.02445650 Hartree
energy change                      -0.00000557     0.00020000    T
constrained gradient max            0.01282848     0.00100000    F
constrained gradient rms            0.00299805     0.00066667    F
gradient max                        0.01282848
gradient rms                        0.00299805
cart. step max                      0.02834570     0.01000000    F
cart. step rms                      0.00592780     0.00666667    T
 
 
--------
Geometry
--------
Formula: C7H12O
Atoms
  Index Symbol   x (angstrom)   y (angstrom)   z (angstrom)
      1      H     0.31856213    -1.88339346    -0.34149304
      2      C    -0.87258945    -0.11587062    -0.09508676
      3      C     0.27780474    -0.80456267    -0.20498732
      4      C     1.57393377    -0.11709307    -0.16000121
      5      O     2.65885586    -0.66165175    -0.27693261
      6      H    -0.77727894     0.96945298     0.00048399
      7      C    -3.24912078     0.42418736     0.42200726
      8      C    -2.29250362    -0.64474604    -0.14724438
      9      C    -2.44143181    -1.94911463     0.66911073
     10      C    -2.66064241    -0.91927161    -1.62924425
     11      H    -2.01965713    -1.69277068    -2.06142453
     12      H    -4.28635397     0.07717071     0.38120513
     13      H    -3.18750839     1.35758933    -0.14800727
     14      H    -3.01515601     0.65200808     1.46766213
     15      H    -3.47875534    -2.29843548     0.63472013
     16      H    -2.17254376    -1.79187787     1.71829977
     17      H    -1.81038531    -2.75092955     0.27618421
     18      H    -3.70068117    -1.25621061    -1.70141127
     19      H    -2.55681269    -0.01672344    -2.24043399
     20      H     1.50600267     0.99547834    -0.03323462
 
Total System Charge             0.00000
 
 *** GOStep6 ***

 Energy gradients wrt nuclear displacements
 ==========================================

     Atom      Cartesian (a.u./angstrom)
                 X         Y         Z
 ----------------------------------------
     1 H     0.000651  0.000218 -0.002221
     2 C    -0.002086 -0.001533  0.003022
     3 C    -0.000744  0.000998 -0.002066
     4 C    -0.000122 -0.006010  0.006313
     5 O     0.000307  0.000881 -0.002118
     6 H     0.000783  0.000830 -0.001076
     7 C     0.000485 -0.000372 -0.000866
     8 C     0.002284  0.002397 -0.000901
     9 C    -0.000381  0.000004  0.000952
    10 C     0.000405 -0.000853  0.000939
    11 H    -0.000028 -0.000252 -0.000387
    12 H    -0.000236 -0.000058 -0.000027
    13 H    -0.000138  0.000297 -0.000208
    14 H    -0.000167  0.000106  0.000442
    15 H    -0.000508 -0.000266  0.000149
    16 H    -0.000051 -0.000123  0.000380
    17 H     0.000388 -0.000198 -0.000242
    18 H    -0.000352 -0.000148 -0.000096
    19 H    -0.000098  0.000204 -0.000305
    20 H    -0.000393  0.003877 -0.001682
 ----------------------------------------
 Mulliken charges used for AMS results%charges...

 dE(predicted):    -0.25204E-03, dE(actual):    -0.27433E-03, Trust radius:    0.106610, all in a.u.
 
----------------------------------------------------------------------
Geometry Convergence after Step   6       (Hartree/Angstrom,Angstrom)
----------------------------------------------------------------------
current energy                               -4.02473083 Hartree
energy change                      -0.00027433     0.00020000    F
constrained gradient max            0.00631502     0.00100000    F
constrained gradient rms            0.00156156     0.00066667    F
gradient max                        0.00631502
gradient rms                        0.00156156
cart. step max                      0.07671459     0.01000000    F
cart. step rms                      0.01516375     0.00666667    F
 
 
--------
Geometry
--------
Formula: C7H12O
Atoms
  Index Symbol   x (angstrom)   y (angstrom)   z (angstrom)
      1      H     0.31893218    -1.88826327    -0.26477845
      2      C    -0.87443796    -0.11383488    -0.10805624
      3      C     0.27802486    -0.80385615    -0.18494500
      4      C     1.57426781    -0.11374385    -0.16755904
      5      O     2.65911079    -0.66595166    -0.24195721
      6      H    -0.78347023     0.97313482    -0.03767135
      7      C    -3.24562340     0.41991326     0.42925664
      8      C    -2.29329013    -0.64671173    -0.15091806
      9      C    -2.43852326    -1.95426569     0.65899771
     10      C    -2.66720161    -0.91144464    -1.63351166
     11      H    -2.02697386    -1.68230202    -2.07066814
     12      H    -4.28305564     0.07379735     0.39369050
     13      H    -3.18595964     1.35539645    -0.13680065
     14      H    -3.00346625     0.64219974     1.47381464
     15      H    -3.47615926    -2.30140503     0.62927612
     16      H    -2.16247510    -1.80160469     1.70663225
     17      H    -1.81199513    -2.75505209     0.25820844
     18      H    -3.70736905    -1.24700909    -1.70392003
     19      H    -2.56419832    -0.00498782    -2.23844193
     20      H     1.50760157     0.99922631    -0.08047643
 
Total System Charge             0.00000
 
 *** GOStep7 ***

 Energy gradients wrt nuclear displacements
 ==========================================

     Atom      Cartesian (a.u./angstrom)
                 X         Y         Z
 ----------------------------------------
     1 H     0.000261 -0.000094 -0.000584
     2 C    -0.002260  0.000013  0.001174
     3 C    -0.000457  0.000359 -0.001484
     4 C     0.000510 -0.001120  0.000506
     5 O    -0.000108  0.000369 -0.000075
     6 H     0.000647 -0.000120  0.001217
     7 C     0.000319 -0.000132 -0.000705
     8 C     0.001597  0.001576 -0.001182
     9 C    -0.000589 -0.000479  0.001241
    10 C     0.000023 -0.000970  0.000053
    11 H    -0.000074  0.000025  0.000046
    12 H     0.000108 -0.000040 -0.000035
    13 H     0.000056 -0.000117 -0.000052
    14 H    -0.000025 -0.000066 -0.000033
    15 H    -0.000004  0.000003  0.000070
    16 H    -0.000045  0.000042 -0.000046
    17 H     0.000103  0.000331 -0.000041
    18 H     0.000091  0.000014  0.000023
    19 H    -0.000039  0.000021  0.000085
    20 H    -0.000116  0.000385 -0.000178
 ----------------------------------------
 Mulliken charges used for AMS results%charges...

 dE(predicted):    -0.21053E-03, dE(actual):    -0.22848E-03, Trust radius:    0.213220, all in a.u.
 
----------------------------------------------------------------------
Geometry Convergence after Step   7       (Hartree/Angstrom,Angstrom)
----------------------------------------------------------------------
current energy                               -4.02495931 Hartree
energy change                      -0.00022848     0.00020000    F
constrained gradient max            0.00226193     0.00100000    F
constrained gradient rms            0.00062960     0.00066667    T
gradient max                        0.00226193
gradient rms                        0.00062960
cart. step max                      0.14306677     0.01000000    F
cart. step rms                      0.02974158     0.00666667    F
 
 
--------
Geometry
--------
Formula: C7H12O
Atoms
  Index Symbol   x (angstrom)   y (angstrom)   z (angstrom)
      1      H     0.32420246    -1.89108655    -0.12171167
      2      C    -0.87607438    -0.11472196    -0.13016320
      3      C     0.27967622    -0.80420201    -0.13897249
      4      C     1.57422143    -0.11029094    -0.16868527
      5      O     2.66134096    -0.66325713    -0.17898247
      6      H    -0.78874388     0.97467948    -0.13234918
      7      C    -3.23709347     0.41274130     0.44385461
      8      C    -2.29218467    -0.64969998    -0.15656223
      9      C    -2.43404590    -1.96512612     0.63904014
     10      C    -2.68057290    -0.89593456    -1.64001931
     11      H    -2.04580722    -1.66437628    -2.08880661
     12      H    -4.27502360     0.06783003     0.41661521
     13      H    -3.18174022     1.35304061    -0.11416775
     14      H    -2.98214935     0.62482648     1.48727359
     15      H    -3.47361776    -2.30582912     0.61835669
     16      H    -2.14357029    -1.82553243     1.68437465
     17      H    -1.81842742    -2.76511082     0.22070105
     18      H    -3.72265948    -1.22588624    -1.70479544
     19      H    -2.57819780     0.01690059    -2.23507184
     20      H     1.50420566     1.00427098    -0.16975636
 
Total System Charge             0.00000
 
 *** GOStep8 ***

 Energy gradients wrt nuclear displacements
 ==========================================

     Atom      Cartesian (a.u./angstrom)
                 X         Y         Z
 ----------------------------------------
     1 H     0.000198 -0.000139  0.000613
     2 C    -0.003784  0.000674  0.000238
     3 C    -0.000261  0.000075 -0.001439
     4 C     0.000723  0.000761 -0.003371
     5 O     0.000137  0.000230  0.001149
     6 H     0.000871 -0.000391  0.003029
     7 C    -0.000075 -0.000252 -0.000834
     8 C     0.002737  0.001827 -0.001174
     9 C    -0.000944 -0.000980  0.001599
    10 C    -0.000604 -0.001270 -0.001007
    11 H    -0.000002  0.000199  0.000406
    12 H     0.000263 -0.000009  0.000005
    13 H     0.000208 -0.000365 -0.000008
    14 H     0.000097 -0.000167 -0.000272
    15 H     0.000259  0.000129 -0.000016
    16 H    -0.000000  0.000228 -0.000316
    17 H    -0.000081  0.000616  0.000086
    18 H     0.000251  0.000130  0.000076
    19 H     0.000042 -0.000068  0.000340
    20 H    -0.000035 -0.001228  0.000896
 ----------------------------------------
 Mulliken charges used for AMS results%charges...

 dE(predicted):    -0.27039E-03, dE(actual):    -0.31867E-03, Trust radius:    0.426439, all in a.u.
 
----------------------------------------------------------------------
Geometry Convergence after Step   8       (Hartree/Angstrom,Angstrom)
----------------------------------------------------------------------
current energy                               -4.02527798 Hartree
energy change                      -0.00031867     0.00020000    F
constrained gradient max            0.00378475     0.00100000    F
constrained gradient rms            0.00104426     0.00066667    F
gradient max                        0.00378475
gradient rms                        0.00104426
cart. step max                      0.21215148     0.01000000    F
cart. step rms                      0.04501802     0.00666667    F
 
 
--------
Geometry
--------
Formula: C7H12O
Atoms
  Index Symbol   x (angstrom)   y (angstrom)   z (angstrom)
      1      H     0.32865329    -1.87246608     0.09043981
      2      C    -0.87746193    -0.11990238    -0.16639537
      3      C     0.28164683    -0.79790695    -0.07080166
      4      C     1.57462248    -0.10565924    -0.16638051
      5      O     2.66302661    -0.64998265    -0.08054528
      6      H    -0.79615078     0.96369231    -0.28104377
      7      C    -3.22130412     0.40232842     0.46583993
      8      C    -2.29102181    -0.65610299    -0.16588638
      9      C    -2.42794118    -1.98242053     0.60829284
     10      C    -2.70270035    -0.87389893    -1.64937468
     11      H    -2.07728746    -1.63855024    -2.11686743
     12      H    -4.26070754     0.06158874     0.45268757
     13      H    -3.17111798     1.34972492    -0.07996333
     14      H    -2.94546762     0.59875850     1.50671517
     15      H    -3.47043077    -2.31283255     0.60237361
     16      H    -2.11510652    -1.86278181     1.64935688
     17      H    -1.83041927    -2.78174697     0.16382198
     18      H    -3.74769239    -1.19534334    -1.70445238
     19      H    -2.60166264     0.04828831    -2.22963308
     20      H     1.50226154     0.99844877    -0.29801180
 
Total System Charge             0.00000
 
 *** GOStep9 ***

 Energy gradients wrt nuclear displacements
 ==========================================

     Atom      Cartesian (a.u./angstrom)
                 X         Y         Z
 ----------------------------------------
     1 H     0.000022  0.000326  0.002216
     2 C    -0.004593  0.001388 -0.001529
     3 C     0.000397 -0.000550 -0.001237
     4 C     0.000986  0.002741 -0.008858
     5 O     0.000249  0.000310  0.002736
     6 H     0.000843 -0.000367  0.005124
     7 C    -0.000771 -0.000371 -0.000975
     8 C     0.003145  0.001382 -0.000177
     9 C    -0.001301 -0.001529  0.001738
    10 C    -0.001186 -0.001448 -0.002605
    11 H     0.000222  0.000474  0.000925
    12 H     0.000452  0.000119  0.000137
    13 H     0.000381 -0.000626  0.000063
    14 H     0.000236 -0.000230 -0.000573
    15 H     0.000717  0.000265 -0.000297
    16 H     0.000125  0.000549 -0.000740
    17 H    -0.000646  0.000758  0.000431
    18 H     0.000426  0.000363  0.000230
    19 H     0.000176 -0.000196  0.000579
    20 H     0.000120 -0.003358  0.002811
 ----------------------------------------
 Mulliken charges used for AMS results%charges...

 dE(predicted):    -0.64534E-03, dE(actual):    -0.48978E-03, Trust radius:    0.426439, all in a.u.
 
----------------------------------------------------------------------
Geometry Convergence after Step   9       (Hartree/Angstrom,Angstrom)
----------------------------------------------------------------------
current energy                               -4.02576776 Hartree
energy change                      -0.00048978     0.00020000    F
constrained gradient max            0.00885661     0.00100000    F
constrained gradient rms            0.00187061     0.00066667    F
gradient max                        0.00885661
gradient rms                        0.00187061
cart. step max                      0.21246433     0.01000000    F
cart. step rms                      0.04755312     0.00666667    F
 
 
--------
Geometry
--------
Formula: C7H12O
Atoms
  Index Symbol   x (angstrom)   y (angstrom)   z (angstrom)
      1      H     0.32592674    -1.82542322     0.30290414
      2      C    -0.87649857    -0.13096153    -0.20893474
      3      C     0.28303914    -0.78253522    -0.00112404
      4      C     1.57640198    -0.10064653    -0.15523756
      5      O     2.66171146    -0.62763920     0.02895918
      6      H    -0.80500903     0.93359772    -0.44333221
      7      C    -3.20110139     0.39308042     0.48861050
      8      C    -2.29154739    -0.66515633    -0.17782111
      9      C    -2.41990313    -2.00082866     0.57448700
     10      C    -2.73069145    -0.85306602    -1.65873024
     11      H    -2.11622285    -1.61213261    -2.14913168
     12      H    -4.24325245     0.06057795     0.49275484
     13      H    -3.15454506     1.34812362    -0.04367481
     14      H    -2.90073340     0.57219813     1.52560045
     15      H    -3.46465700    -2.32247399     0.58514988
     16      H    -2.08419643    -1.90187924     1.61046206
     17      H    -1.84085642    -2.79903419     0.10390626
     18      H    -3.77808335    -1.16808199    -1.70139752
     19      H    -2.63440080     0.07883445    -2.22374112
     20      H     1.50835778     0.97668175    -0.41953716
 
Total System Charge             0.00000
 
 *** GOStep10 ***

 Energy gradients wrt nuclear displacements
 ==========================================

     Atom      Cartesian (a.u./angstrom)
                 X         Y         Z
 ----------------------------------------
     1 H    -0.000691  0.001347  0.003374
     2 C    -0.001250  0.000910 -0.003710
     3 C     0.001692 -0.001596 -0.000478
     4 C     0.000745  0.005707 -0.013469
     5 O     0.000320 -0.000237  0.003862
     6 H    -0.000444  0.000024  0.006340
     7 C    -0.001856  0.000095 -0.000932
     8 C     0.000280 -0.000897  0.002174
     9 C    -0.000649 -0.000917  0.000949
    10 C    -0.001104 -0.001150 -0.004036
    11 H     0.000476  0.000714  0.001249
    12 H     0.000462  0.000380  0.000366
    13 H     0.000366 -0.000613  0.000248
    14 H     0.000303 -0.000140 -0.000754
    15 H     0.001181  0.000493 -0.000812
    16 H     0.000321  0.000792 -0.001041
    17 H    -0.001301  0.000258  0.000826
    18 H     0.000472  0.000557  0.000407
    19 H     0.000287 -0.000354  0.000585
    20 H     0.000388 -0.005373  0.004852
 ----------------------------------------
 Mulliken charges used for AMS results%charges...

 dE(predicted):    -0.58888E-03, dE(actual):    -0.45987E-03, Trust radius:    0.852879, all in a.u.
 
----------------------------------------------------------------------
Geometry Convergence after Step  10       (Hartree/Angstrom,Angstrom)
----------------------------------------------------------------------
current energy                               -4.02622763 Hartree
energy change                      -0.00045987     0.00020000    F
constrained gradient max            0.01347053     0.00100000    F
constrained gradient rms            0.00258459     0.00066667    F
gradient max                        0.01347053
gradient rms                        0.00258459
cart. step max                      0.21985612     0.01000000    F
cart. step rms                      0.05166312     0.00666667    F
 
 
--------
Geometry
--------
Formula: C7H12O
Atoms
  Index Symbol   x (angstrom)   y (angstrom)   z (angstrom)
      1      H     0.31419265    -1.74633822     0.52276026
      2      C    -0.87534961    -0.14471089    -0.24894636
      3      C     0.27928242    -0.75620438     0.07565201
      4      C     1.57614171    -0.09793944    -0.14044310
      5      O     2.65699620    -0.58790341     0.14527948
      6      H    -0.80286451     0.88342416    -0.61176122
      7      C    -3.17470245     0.38075591     0.51174390
      8      C    -2.28797634    -0.67446521    -0.19185212
      9      C    -2.41315635    -2.02036055     0.53769017
     10      C    -2.76127117    -0.83065190    -1.66761439
     11      H    -2.16400146    -1.58665947    -2.18346977
     12      H    -4.21897129     0.05530177     0.53093350
     13      H    -3.13081894     1.34432755    -0.00494515
     14      H    -2.85076590     0.53914101     1.54491636
     15      H    -3.46029691    -2.33277110     0.56573665
     16      H    -2.05465451    -1.94511211     1.56803163
     17      H    -1.85236019    -2.81462905     0.03859541
     18      H    -3.81229548    -1.13503577    -1.69352738
     19      H    -2.66784829     0.11062962    -2.21718465
     20      H     1.51445879     0.93243682    -0.55142311
 
Total System Charge             0.00000
 
 *** GOStep11 ***

 Energy gradients wrt nuclear displacements
 ==========================================

     Atom      Cartesian (a.u./angstrom)
                 X         Y         Z
 ----------------------------------------
     1 H    -0.000772  0.002535  0.004273
     2 C    -0.002328  0.000559 -0.003754
     3 C     0.001389 -0.001366  0.000366
     4 C     0.001011  0.002685 -0.016885
     5 O     0.000640  0.000751  0.004583
     6 H    -0.000858  0.001104  0.006367
     7 C    -0.001919 -0.000465 -0.000883
     8 C     0.002467 -0.002132  0.003888
     9 C    -0.001145 -0.000247  0.000357
    10 C    -0.001513 -0.000699 -0.005738
    11 H     0.000677  0.000762  0.001605
    12 H     0.000556  0.000275  0.000445
    13 H     0.000474 -0.000738  0.000139
    14 H     0.000363 -0.000077 -0.000669
    15 H     0.001213  0.000302 -0.000943
    16 H     0.000571  0.001016 -0.001141
    17 H    -0.001766  0.000075  0.000706
    18 H     0.000267  0.000775  0.000493
    19 H     0.000338 -0.000354  0.000520
    20 H     0.000334 -0.004763  0.006271
 ----------------------------------------
 Mulliken charges used for AMS results%charges...

 dE(predicted):    -0.51366E-03, dE(actual):    -0.30219E-03, Trust radius:    0.852879, all in a.u.
 
----------------------------------------------------------------------
Geometry Convergence after Step  11       (Hartree/Angstrom,Angstrom)
----------------------------------------------------------------------
current energy                               -4.02652982 Hartree
energy change                      -0.00030219     0.00020000    F
constrained gradient max            0.01688518     0.00100000    F
constrained gradient rms            0.00303402     0.00066667    F
gradient max                        0.01688518
gradient rms                        0.00303402
cart. step max                      0.13137975     0.01000000    F
cart. step rms                      0.03715840     0.00666667    F
 
 
--------
Geometry
--------
Formula: C7H12O
Atoms
  Index Symbol   x (angstrom)   y (angstrom)   z (angstrom)
      1      H     0.29703977    -1.69785771     0.62335320
      2      C    -0.86772167    -0.16692218    -0.30185260
      3      C     0.27814906    -0.74121516     0.10808562
      4      C     1.57759919    -0.08603187    -0.09927784
      5      O     2.64675568    -0.55311793     0.26090409
      6      H    -0.80137353     0.83016896    -0.74314097
      7      C    -3.14415196     0.38066986     0.52398440
      8      C    -2.28995744    -0.68361321    -0.21256595
      9      C    -2.39915838    -2.03050708     0.50990306
     10      C    -2.80495683    -0.82431829    -1.67433660
     11      H    -2.22420904    -1.57421040    -2.21796632
     12      H    -4.19274048     0.07037470     0.56619384
     13      H    -3.10005198     1.34957457     0.01715815
     14      H    -2.79140931     0.52383166     1.54982942
     15      H    -3.44552497    -2.34428080     0.55447775
     16      H    -2.02575777    -1.96420373     1.53579108
     17      H    -1.84490364    -2.82179430    -0.00252992
     18      H    -3.85585719    -1.13072656    -1.67521146
     19      H    -2.72858874     0.12275988    -2.21640405
     20      H     1.53055763     0.91465490    -0.57622279
 
Total System Charge             0.00000
 
 *** GOStep12 ***

 Energy gradients wrt nuclear displacements
 ==========================================

     Atom      Cartesian (a.u./angstrom)
                 X         Y         Z
 ----------------------------------------
     1 H    -0.002107  0.002437  0.003331
     2 C     0.005865 -0.002279 -0.006528
     3 C     0.003272 -0.001903  0.002321
     4 C     0.000192  0.006014 -0.016444
     5 O     0.000344 -0.000487  0.004431
     6 H    -0.003396  0.001003  0.005428
     7 C    -0.003265  0.000820 -0.000345
     8 C    -0.004054 -0.004434  0.006417
     9 C     0.001394  0.002267 -0.001598
    10 C    -0.000881  0.000082 -0.005468
    11 H     0.000513  0.000711  0.001180
    12 H     0.000189  0.000630  0.000604
    13 H     0.000164 -0.000271  0.000490
    14 H     0.000349  0.000100 -0.000620
    15 H     0.001154  0.000768 -0.001049
    16 H     0.000564  0.000634 -0.000833
    17 H    -0.001310 -0.000692  0.000838
    18 H     0.000208  0.000518  0.000419
    19 H     0.000304 -0.000517  0.000418
    20 H     0.000501 -0.005401  0.007010
 ----------------------------------------
 Mulliken charges used for AMS results%charges...

 dE(predicted):    -0.22627E-03, dE(actual):    -0.24745E-03, Trust radius:    0.852879, all in a.u.
 
----------------------------------------------------------------------
Geometry Convergence after Step  12       (Hartree/Angstrom,Angstrom)
----------------------------------------------------------------------
current energy                               -4.02677727 Hartree
energy change                      -0.00024745     0.00020000    F
constrained gradient max            0.01644949     0.00100000    F
constrained gradient rms            0.00344418     0.00066667    F
gradient max                        0.01644949
gradient rms                        0.00344418
cart. step max                      0.06927721     0.01000000    F
cart. step rms                      0.02097463     0.00666667    F
 
 
--------
Geometry
--------
Formula: C7H12O
Atoms
  Index Symbol   x (angstrom)   y (angstrom)   z (angstrom)
      1      H     0.28404340    -1.66848004     0.68389452
      2      C    -0.86539781    -0.17005546    -0.31544451
      3      C     0.27102463    -0.72746016     0.13970934
      4      C     1.57383582    -0.08386895    -0.07556685
      5      O     2.63996751    -0.53244682     0.31396342
      6      H    -0.78358113     0.80023489    -0.81241818
      7      C    -3.12685849     0.37843909     0.53015579
      8      C    -2.28573354    -0.68395622    -0.22433509
      9      C    -2.39162018    -2.03470582     0.49420787
     10      C    -2.82674347    -0.81832056    -1.67578576
     11      H    -2.25722485    -1.56448976    -2.23735372
     12      H    -4.17660665     0.07114681     0.57444221
     13      H    -3.08208166     1.35231936     0.03240745
     14      H    -2.76664812     0.50860018     1.55531066
     15      H    -3.43642335    -2.35647961     0.53756835
     16      H    -2.02220565    -1.97449639     1.52229308
     17      H    -1.82739348    -2.81660392    -0.02293182
     18      H    -3.87672812    -1.12819759    -1.66051552
     19      H    -2.76323033     0.13237932    -2.21370873
     20      H     1.53334386     0.88967697    -0.61572039
 
Total System Charge             0.00000
 
 *** GOStep13 ***

 Energy gradients wrt nuclear displacements
 ==========================================

     Atom      Cartesian (a.u./angstrom)
                 X         Y         Z
 ----------------------------------------
     1 H    -0.001324  0.001188  0.001992
     2 C     0.004112 -0.001238 -0.002068
     3 C     0.001257 -0.000105  0.001744
     4 C    -0.000341  0.001045 -0.009253
     5 O     0.000503  0.000153  0.002520
     6 H    -0.002153  0.001142  0.002870
     7 C    -0.001644  0.000344 -0.000141
     8 C    -0.000811 -0.003176  0.003244
     9 C     0.000863  0.002640 -0.001656
    10 C    -0.001873 -0.000142 -0.003962
    11 H     0.000191  0.000218  0.000556
    12 H     0.000073  0.000129  0.000213
    13 H     0.000128 -0.000032  0.000228
    14 H     0.000344  0.000116 -0.000125
    15 H     0.000213  0.000264 -0.000108
    16 H     0.000244  0.000094 -0.000209
    17 H    -0.000169 -0.000357  0.000228
    18 H    -0.000132  0.000085 -0.000047
    19 H     0.000216 -0.000290  0.000431
    20 H     0.000304 -0.002078  0.003544
 ----------------------------------------
 Mulliken charges used for AMS results%charges...

 dE(predicted):    -0.23973E-03, dE(actual):    -0.34191E-03, Trust radius:    0.852879, all in a.u.
 
----------------------------------------------------------------------
Geometry Convergence after Step  13       (Hartree/Angstrom,Angstrom)
----------------------------------------------------------------------
current energy                               -4.02711917 Hartree
energy change                      -0.00034191     0.00020000    F
constrained gradient max            0.00925930     0.00100000    F
constrained gradient rms            0.00189011     0.00066667    F
gradient max                        0.00925930
gradient rms                        0.00189011
cart. step max                      0.03205110     0.01000000    F
cart. step rms                      0.01083684     0.00666667    F
 
 
--------
Geometry
--------
Formula: C7H12O
Atoms
  Index Symbol   x (angstrom)   y (angstrom)   z (angstrom)
      1      H     0.29029591    -1.68929939     0.65184342
      2      C    -0.86386695    -0.17500788    -0.32521752
      3      C     0.27097090    -0.73677961     0.12781320
      4      C     1.56855039    -0.07451590    -0.05473595
      5      O     2.63721802    -0.51716794     0.33190014
      6      H    -0.76940728     0.79015922    -0.83111247
      7      C    -3.11461520     0.38299880     0.52819023
      8      C    -2.28328428    -0.68440265    -0.22951776
      9      C    -2.39328112    -2.03500014     0.49562388
     10      C    -2.83575617    -0.82165527    -1.67264369
     11      H    -2.27308158    -1.56811456    -2.24173275
     12      H    -4.16642935     0.08169919     0.57134763
     13      H    -3.06469746     1.35713368     0.03093373
     14      H    -2.75384730     0.50880232     1.55369983
     15      H    -3.43748114    -2.36130014     0.53144380
     16      H    -2.03454481    -1.97194483     1.52753964
     17      H    -1.81893078    -2.81391949    -0.01522877
     18      H    -3.88483485    -1.13399968    -1.64728362
     19      H    -2.78020237     0.12849704    -2.21334234
     20      H     1.52096379     0.90705255    -0.58934850
 
Total System Charge             0.00000
 
 *** GOStep14 ***

 Energy gradients wrt nuclear displacements
 ==========================================

     Atom      Cartesian (a.u./angstrom)
                 X         Y         Z
 ----------------------------------------
     1 H    -0.000187  0.000071  0.000522
     2 C     0.001189  0.000145 -0.000649
     3 C     0.000084  0.000226 -0.000714
     4 C    -0.000369 -0.001593  0.000283
     5 O    -0.000067  0.000361  0.000036
     6 H     0.000017  0.000507  0.000385
     7 C    -0.000290  0.000098  0.000114
     8 C     0.000576 -0.000988  0.000659
     9 C    -0.000216  0.001180 -0.000671
    10 C    -0.000905 -0.000022 -0.000735
    11 H    -0.000040 -0.000180 -0.000125
    12 H    -0.000087 -0.000098 -0.000098
    13 H     0.000050  0.000155 -0.000042
    14 H     0.000162  0.000042  0.000125
    15 H    -0.000403 -0.000225  0.000557
    16 H    -0.000272 -0.000386  0.000273
    17 H     0.000655  0.000092 -0.000086
    18 H     0.000006 -0.000219 -0.000017
    19 H     0.000113  0.000070  0.000221
    20 H    -0.000015  0.000767 -0.000040
 ----------------------------------------
 Mulliken charges used for AMS results%charges...

 dE(predicted):    -0.15126E-03, dE(actual):    -0.15121E-03, Trust radius:    0.852879, all in a.u.
 
----------------------------------------------------------------------
Geometry Convergence after Step  14       (Hartree/Angstrom,Angstrom)
----------------------------------------------------------------------
current energy                               -4.02727039 Hartree
energy change                      -0.00015121     0.00020000    T
constrained gradient max            0.00159364     0.00100000    F
constrained gradient rms            0.00046991     0.00066667    T
gradient max                        0.00159364
gradient rms                        0.00046991
cart. step max                      0.01619966     0.01000000    F
cart. step rms                      0.00420959     0.00666667    T
 
 
--------
Geometry
--------
Formula: C7H12O
Atoms
  Index Symbol   x (angstrom)   y (angstrom)   z (angstrom)
      1      H     0.29225504    -1.68458056     0.66140732
      2      C    -0.86543135    -0.17477421    -0.31936798
      3      C     0.27039889    -0.73282096     0.13627636
      4      C     1.56819195    -0.07414310    -0.05991165
      5      O     2.63816955    -0.51602094     0.32406960
      6      H    -0.77056324     0.78510224    -0.83482225
      7      C    -3.11717221     0.38215076     0.53029061
      8      C    -2.28430889    -0.68456639    -0.22665212
      9      C    -2.39538246    -2.03687020     0.49574993
     10      C    -2.83044542    -0.81907421    -1.67167749
     11      H    -2.26517051    -1.56442348    -2.23951866
     12      H    -4.16927610     0.08155948     0.57000038
     13      H    -3.06534463     1.35692279     0.03469294
     14      H    -2.75959108     0.50605764     1.55700520
     15      H    -3.43981138    -2.36187599     0.52816230
     16      H    -2.03792757    -1.97493798     1.52808834
     17      H    -1.82176769    -2.81575450    -0.01565497
     18      H    -3.87960157    -1.13131700    -1.65127349
     19      H    -2.77301750     0.13169630    -2.21114410
     20      H     1.51953454     0.90090563    -0.60554817
 
Total System Charge             0.00000
 
 *** GOStep15 ***

 Energy gradients wrt nuclear displacements
 ==========================================

     Atom      Cartesian (a.u./angstrom)
                 X         Y         Z
 ----------------------------------------
     1 H    -0.000065 -0.000114 -0.000113
     2 C     0.000167  0.000399  0.000059
     3 C     0.000191  0.000340  0.000315
     4 C    -0.000136 -0.000835 -0.000031
     5 O    -0.000082  0.000154  0.000062
     6 H     0.000004  0.000011 -0.000034
     7 C    -0.000036  0.000361  0.000133
     8 C    -0.000027 -0.000939  0.000222
     9 C     0.000008  0.000486 -0.000488
    10 C    -0.000336  0.000108 -0.000370
    11 H     0.000006 -0.000084 -0.000060
    12 H     0.000018 -0.000051 -0.000071
    13 H    -0.000008  0.000082  0.000001
    14 H     0.000054  0.000020  0.000015
    15 H    -0.000096 -0.000051  0.000180
    16 H    -0.000145 -0.000177  0.000180
    17 H     0.000303 -0.000012  0.000017
    18 H     0.000102 -0.000094  0.000054
    19 H     0.000076  0.000030  0.000094
    20 H     0.000002  0.000368 -0.000163
 ----------------------------------------
 Mulliken charges used for AMS results%charges...

 dE(predicted):    -0.11007E-04, dE(actual):    -0.96737E-05, Trust radius:    0.852879, all in a.u.
 
---------------------------------------------------------
Geometry Convergence after Step  15       ** CONVERGED **
---------------------------------------------------------
current energy                               -4.02728006 Hartree
energy change                      -0.00000967     0.00020000    T
constrained gradient max            0.00093913     0.00100000    T
constrained gradient rms            0.00024123     0.00066667    T
gradient max                        0.00093913
gradient rms                        0.00024123
cart. step max                      0.00510901     0.01000000    T
cart. step rms                      0.00125198     0.00666667    T
 
Geometry optimization converged

Optimized geometry:
 
--------
Geometry
--------
Formula: C7H12O
Atoms
  Index Symbol   x (angstrom)   y (angstrom)   z (angstrom)
      1      H     0.29225504    -1.68458056     0.66140732
      2      C    -0.86543135    -0.17477421    -0.31936798
      3      C     0.27039889    -0.73282096     0.13627636
      4      C     1.56819195    -0.07414310    -0.05991165
      5      O     2.63816955    -0.51602094     0.32406960
      6      H    -0.77056324     0.78510224    -0.83482225
      7      C    -3.11717221     0.38215076     0.53029061
      8      C    -2.28430889    -0.68456639    -0.22665212
      9      C    -2.39538246    -2.03687020     0.49574993
     10      C    -2.83044542    -0.81907421    -1.67167749
     11      H    -2.26517051    -1.56442348    -2.23951866
     12      H    -4.16927610     0.08155948     0.57000038
     13      H    -3.06534463     1.35692279     0.03469294
     14      H    -2.75959108     0.50605764     1.55700520
     15      H    -3.43981138    -2.36187599     0.52816230
     16      H    -2.03792757    -1.97493798     1.52808834
     17      H    -1.82176769    -2.81575450    -0.01565497
     18      H    -3.87960157    -1.13131700    -1.65127349
     19      H    -2.77301750     0.13169630    -2.21114410
     20      H     1.51953454     0.90090563    -0.60554817
 
Total System Charge             0.00000
 
Performing a single point calculation on the final geometry ...

 *** adf ***



 ===========================
 A T T A C H E D   F I L E S
 ===========================
  
 Restart
 /scratch/5502/amstmp_8.achiral_catalyst.H_tBu_AlF3.Rsub_kid0.1948079650/GOStep1
 5.rkf*** GOStep15 ***



 ===============================
 M O D E L   P A R A M E T E R S
 ===============================
  
 DENSITY FUNCTIONAL POTENTIAL (scf)
    LDA:                               Exchange only                           == Not Default ==
    Gradient Corrections:              OPTX LYP                                == Not Default ==

 SPIN  (restricted / unrestr.)
    Molecule:                          Restricted                               
    Fragments:                         Restricted                               

 OTHER ASPECTS
    Relativistic Corrections:          scalar (ZORA,MAPA)                       

    Nuclear Charge Density Model:      Point Charge Nuclei                      
    Core Treatment:                    Frozen Orbital(s)                        

    Hyperfine or Zeeman Interaction:   ---                                      



 ===============
 G E O M E T R Y  ***  3D  Molecule  ***
 ===============
  

 ATOMS
 =====                            X Y Z                    CHARGE
                                (Angstrom)             Nucl     +Core       At.Mass
                       --------------------------    ----------------       -------
    1  H               0.2923   -1.6846    0.6614      1.00      1.00        1.0078
    2  C              -0.8654   -0.1748   -0.3194      6.00      6.00       12.0000
    3  C               0.2704   -0.7328    0.1363      6.00      6.00       12.0000
    4  C               1.5682   -0.0741   -0.0599      6.00      6.00       12.0000
    5  O               2.6382   -0.5160    0.3241      8.00      8.00       15.9949
    6  H              -0.7706    0.7851   -0.8348      1.00      1.00        1.0078
    7  C              -3.1172    0.3822    0.5303      6.00      6.00       12.0000
    8  C              -2.2843   -0.6846   -0.2267      6.00      6.00       12.0000
    9  C              -2.3954   -2.0369    0.4957      6.00      6.00       12.0000
   10  C              -2.8304   -0.8191   -1.6717      6.00      6.00       12.0000
   11  H              -2.2652   -1.5644   -2.2395      1.00      1.00        1.0078
   12  H              -4.1693    0.0816    0.5700      1.00      1.00        1.0078
   13  H              -3.0653    1.3569    0.0347      1.00      1.00        1.0078
   14  H              -2.7596    0.5061    1.5570      1.00      1.00        1.0078
   15  H              -3.4398   -2.3619    0.5282      1.00      1.00        1.0078
   16  H              -2.0379   -1.9749    1.5281      1.00      1.00        1.0078
   17  H              -1.8218   -2.8158   -0.0157      1.00      1.00        1.0078
   18  H              -3.8796   -1.1313   -1.6513      1.00      1.00        1.0078
   19  H              -2.7730    0.1317   -2.2111      1.00      1.00        1.0078
   20  H               1.5195    0.9009   -0.6055      1.00      1.00        1.0078


 FRAGMENTS
 =========                                     Atoms in this Fragment     Cart. coord.s (Angstrom)
                                               -------------------------------------------------------
    1  H                                                 1  H            0.2923   -1.6846    0.6614
    2  H                                                 6  H           -0.7706    0.7851   -0.8348
    3  H                                                11  H           -2.2652   -1.5644   -2.2395
    4  H                                                12  H           -4.1693    0.0816    0.5700
    5  H                                                13  H           -3.0653    1.3569    0.0347
    6  H                                                14  H           -2.7596    0.5061    1.5570
    7  H                                                15  H           -3.4398   -2.3619    0.5282
    8  H                                                16  H           -2.0379   -1.9749    1.5281
    9  H                                                17  H           -1.8218   -2.8158   -0.0157
   10  H                                                18  H           -3.8796   -1.1313   -1.6513
   11  H                                                19  H           -2.7730    0.1317   -2.2111
   12  H                                                20  H            1.5195    0.9009   -0.6055
   13  C                                                 2  C           -0.8654   -0.1748   -0.3194
   14  C                                                 3  C            0.2704   -0.7328    0.1363
   15  C                                                 4  C            1.5682   -0.0741   -0.0599
   16  C                                                 7  C           -3.1172    0.3822    0.5303
   17  C                                                 8  C           -2.2843   -0.6846   -0.2267
   18  C                                                 9  C           -2.3954   -2.0369    0.4957
   19  C                                                10  C           -2.8304   -0.8191   -1.6717
   20  O                                                 5  O            2.6382   -0.5160    0.3241



 =====================================
 S Y M M E T R Y ,   E L E C T R O N S
 =====================================
  
 Symmetry: NOSYM

 Irreducible Representations, including subspecies
 -------------------------------------------------
 A


 Configuration of Valence Electrons
 ==================================
 ( determined in the SCF procedure )

 Total:   62

 Net Charge: 0 (Nuclei minus Electrons)

 Aufbau principle for MO occupations will be applied through SCF cycle no.      49
 Thereafter, the program will assign electrons to MOs that are spatially
 similar to the occupied MOs in a "reference" cycle ("KeepOrbitals").
 The reference cycle is always the PREVIOUS cycle: it will evolve with
 the SCF procedure.
1
 ***************************************************************************************************



                                      ****************************************
                                      *  B U I L D : (Fragments, Functions)  *
                                      ****************************************
  



 =======
 S F O s  ***  (Symmetrized Fragment Orbitals)  ***
 =======
  
 SFOs are linear combinations of (valence) Fragment Orbitals (FOs), such that the SFOs transform as the
 irreducible representations of the (molecular) symmetry group. Each SFO is therefore characterized by
 an irrep of the molecule and by a few (or only one) generating FOs.
 The SFOs constitute a symmetry-adapted basis for the Fock matrix. The MO eigenvector coefficients in
 this basis provide a direct interpretation of the MOs in terms of Frontier Orbital Theory.

 The SFOs are combined with auxiliary Core Functions (CFs) to ensure orthogonalization on the (frozen)
 Core Orbitals (COs). The Core-orthogonalized SFOs (CSFOs) constitute the true Fock basis.

 The FOs, and hence also the (C)SFOs are combinations of the elementary basis functions (BAS). The basis
 functions that participate in the description of the SFOs depend on the irrep. The indices of the
 involved functions are printed below for each irrep.
 (The complete list of primitive basis functions is printed in another section)

 Total nr. of (C)SFOs (summation over all irreps) :   340

 NOTE: a (C)SFO that is defined as a combination of more than one FO is usually NOT normalized.



                                       === A ===
 Nr. of SFOs :  340
 Cartesian basis functions that participate in this irrep (total number =   384) :
      1     2     3     4     5     6     7     8     9    10
     11    12    13    14    15    16    17    18    19    20
     21    22    23    24    25    26    27    28    29    30
     31    32    33    34    35    36    37    38    39    40
     41    42    43    44    45    46    47    48    49    50
     51    52    53    54    55    56    57    58    59    60
     61    62    63    64    65    66    67    68    69    70
     71    72    73    74    75    76    77    78    79    80
     81    82    83    84    85    86    87    88    89    90
     91    92    93    94    95    96    97    98    99   100
    101   102   103   104   105   106   107   108   109   110
    111   112   113   114   115   116   117   118   119   120
    121   122   123   124   125   126   127   128   129   130
    131   132   133   134   135   136   137   138   139   140
    141   142   143   144   145   146   147   148   149   150
    153   156   151   154   157   152   155   158   159   160
    161   162   163   164   165   166   167   168   169   170
    171   172   173   174   175   176   177   178   179   180
    183   186   181   184   187   182   185   188   189   190
    191   192   193   194   195   196   197   198   199   200
    201   202   203   204   205   206   207   208   209   210
    213   216   211   214   217   212   215   218   219   220
    221   222   223   224   225   226   227   228   229   230
    231   232   233   234   235   236   237   238   239   240
    243   246   241   244   247   242   245   248   249   250
    251   252   253   254   255   256   257   258   259   260
    261   262   263   264   265   266   267   268   269   270
    273   276   271   274   277   272   275   278   279   280
    281   282   283   284   285   286   287   288   289   290
    291   292   293   294   295   296   297   298   299   300
    303   306   301   304   307   302   305   308   309   310
    311   312   313   314   315   316   317   318   319   320
    321   322   323   324   325   326   327   328   329   330
    333   336   331   334   337   332   335   338   339   340
    341   342   343   344   345   346   347   348   349   350
    351   352   353   354   355   356   357   358   359   360
    363   366   361   364   367   362   365   368   369   370
    371   372   373   374   375   376   377   378   379   380
    381   382   383   384

    SFO  (index         Fragment          Generating    Expansion in Fragment Orbitals
  indx  incl.CFs)   Occup   Orb.Energy   FragmentType  Coeff.   Orbital     on Fragment
 --------------------------------------------------------------------------------------
     1       1      1.000      -0.238 au  H             1.00      1 S               1
                        (      -6.484 eV)
     2       2       --         0.077 au  H             1.00      2 S               1
                        (       2.096 eV)
     3       3       --         1.521 au  H             1.00      3 S               1
                        (      41.380 eV)
     4       4       --         0.410 au  H             1.00      1 P:x             1
                        (      11.162 eV)
     5       5       --         0.410 au  H             1.00      1 P:y             1
                        (      11.162 eV)
     6       6       --         0.410 au  H             1.00      1 P:z             1
                        (      11.162 eV)
     7       7       --         2.567 au  H             1.00      1 D:z2            1
                        (      69.838 eV)
     8       8       --         2.567 au  H             1.00      1 D:x2-y2         1
                        (      69.838 eV)
     9       9       --         2.567 au  H             1.00      1 D:xy            1
                        (      69.838 eV)
    10      10       --         2.567 au  H             1.00      1 D:xz            1
                        (      69.838 eV)
    11      11       --         2.567 au  H             1.00      1 D:yz            1
                        (      69.838 eV)
    12      12      1.000      -0.238 au  H             1.00      1 S               2
                        (      -6.484 eV)
    13      13       --         0.077 au  H             1.00      2 S               2
                        (       2.096 eV)
    14      14       --         1.521 au  H             1.00      3 S               2
                        (      41.380 eV)
    15      15       --         0.410 au  H             1.00      1 P:x             2
                        (      11.162 eV)
    16      16       --         0.410 au  H             1.00      1 P:y             2
                        (      11.162 eV)
    17      17       --         0.410 au  H             1.00      1 P:z             2
                        (      11.162 eV)
    18      18       --         2.567 au  H             1.00      1 D:z2            2
                        (      69.838 eV)
    19      19       --         2.567 au  H             1.00      1 D:x2-y2         2
                        (      69.838 eV)
    20      20       --         2.567 au  H             1.00      1 D:xy            2
                        (      69.838 eV)
    21      21       --         2.567 au  H             1.00      1 D:xz            2
                        (      69.838 eV)
    22      22       --         2.567 au  H             1.00      1 D:yz            2
                        (      69.838 eV)
    23      23      1.000      -0.238 au  H             1.00      1 S               3
                        (      -6.484 eV)
    24      24       --         0.077 au  H             1.00      2 S               3
                        (       2.096 eV)
    25      25       --         1.521 au  H             1.00      3 S               3
                        (      41.380 eV)
    26      26       --         0.410 au  H             1.00      1 P:x             3
                        (      11.162 eV)
    27      27       --         0.410 au  H             1.00      1 P:y             3
                        (      11.162 eV)
    28      28       --         0.410 au  H             1.00      1 P:z             3
                        (      11.162 eV)
    29      29       --         2.567 au  H             1.00      1 D:z2            3
                        (      69.838 eV)
    30      30       --         2.567 au  H             1.00      1 D:x2-y2         3
                        (      69.838 eV)
    31      31       --         2.567 au  H             1.00      1 D:xy            3
                        (      69.838 eV)
    32      32       --         2.567 au  H             1.00      1 D:xz            3
                        (      69.838 eV)
    33      33       --         2.567 au  H             1.00      1 D:yz            3
                        (      69.838 eV)
    34      34      1.000      -0.238 au  H             1.00      1 S               4
                        (      -6.484 eV)
    35      35       --         0.077 au  H             1.00      2 S               4
                        (       2.096 eV)
    36      36       --         1.521 au  H             1.00      3 S               4
                        (      41.380 eV)
    37      37       --         0.410 au  H             1.00      1 P:x             4
                        (      11.162 eV)
    38      38       --         0.410 au  H             1.00      1 P:y             4
                        (      11.162 eV)
    39      39       --         0.410 au  H             1.00      1 P:z             4
                        (      11.162 eV)
    40      40       --         2.567 au  H             1.00      1 D:z2            4
                        (      69.838 eV)
    41      41       --         2.567 au  H             1.00      1 D:x2-y2         4
                        (      69.838 eV)
    42      42       --         2.567 au  H             1.00      1 D:xy            4
                        (      69.838 eV)
    43      43       --         2.567 au  H             1.00      1 D:xz            4
                        (      69.838 eV)
    44      44       --         2.567 au  H             1.00      1 D:yz            4
                        (      69.838 eV)
    45      45      1.000      -0.238 au  H             1.00      1 S               5
                        (      -6.484 eV)
    46      46       --         0.077 au  H             1.00      2 S               5
                        (       2.096 eV)
    47      47       --         1.521 au  H             1.00      3 S               5
                        (      41.380 eV)
    48      48       --         0.410 au  H             1.00      1 P:x             5
                        (      11.162 eV)
    49      49       --         0.410 au  H             1.00      1 P:y             5
                        (      11.162 eV)
    50      50       --         0.410 au  H             1.00      1 P:z             5
                        (      11.162 eV)
    51      51       --         2.567 au  H             1.00      1 D:z2            5
                        (      69.838 eV)
    52      52       --         2.567 au  H             1.00      1 D:x2-y2         5
                        (      69.838 eV)
    53      53       --         2.567 au  H             1.00      1 D:xy            5
                        (      69.838 eV)
    54      54       --         2.567 au  H             1.00      1 D:xz            5
                        (      69.838 eV)
    55      55       --         2.567 au  H             1.00      1 D:yz            5
                        (      69.838 eV)
    56      56      1.000      -0.238 au  H             1.00      1 S               6
                        (      -6.484 eV)
    57      57       --         0.077 au  H             1.00      2 S               6
                        (       2.096 eV)
    58      58       --         1.521 au  H             1.00      3 S               6
                        (      41.380 eV)
    59      59       --         0.410 au  H             1.00      1 P:x             6
                        (      11.162 eV)
    60      60       --         0.410 au  H             1.00      1 P:y             6
                        (      11.162 eV)
    61      61       --         0.410 au  H             1.00      1 P:z             6
                        (      11.162 eV)
    62      62       --         2.567 au  H             1.00      1 D:z2            6
                        (      69.838 eV)
    63      63       --         2.567 au  H             1.00      1 D:x2-y2         6
                        (      69.838 eV)
    64      64       --         2.567 au  H             1.00      1 D:xy            6
                        (      69.838 eV)
    65      65       --         2.567 au  H             1.00      1 D:xz            6
                        (      69.838 eV)
    66      66       --         2.567 au  H             1.00      1 D:yz            6
                        (      69.838 eV)
    67      67      1.000      -0.238 au  H             1.00      1 S               7
                        (      -6.484 eV)
    68      68       --         0.077 au  H             1.00      2 S               7
                        (       2.096 eV)
    69      69       --         1.521 au  H             1.00      3 S               7
                        (      41.380 eV)
    70      70       --         0.410 au  H             1.00      1 P:x             7
                        (      11.162 eV)
    71      71       --         0.410 au  H             1.00      1 P:y             7
                        (      11.162 eV)
    72      72       --         0.410 au  H             1.00      1 P:z             7
                        (      11.162 eV)
    73      73       --         2.567 au  H             1.00      1 D:z2            7
                        (      69.838 eV)
    74      74       --         2.567 au  H             1.00      1 D:x2-y2         7
                        (      69.838 eV)
    75      75       --         2.567 au  H             1.00      1 D:xy            7
                        (      69.838 eV)
    76      76       --         2.567 au  H             1.00      1 D:xz            7
                        (      69.838 eV)
    77      77       --         2.567 au  H             1.00      1 D:yz            7
                        (      69.838 eV)
    78      78      1.000      -0.238 au  H             1.00      1 S               8
                        (      -6.484 eV)
    79      79       --         0.077 au  H             1.00      2 S               8
                        (       2.096 eV)
    80      80       --         1.521 au  H             1.00      3 S               8
                        (      41.380 eV)
    81      81       --         0.410 au  H             1.00      1 P:x             8
                        (      11.162 eV)
    82      82       --         0.410 au  H             1.00      1 P:y             8
                        (      11.162 eV)
    83      83       --         0.410 au  H             1.00      1 P:z             8
                        (      11.162 eV)
    84      84       --         2.567 au  H             1.00      1 D:z2            8
                        (      69.838 eV)
    85      85       --         2.567 au  H             1.00      1 D:x2-y2         8
                        (      69.838 eV)
    86      86       --         2.567 au  H             1.00      1 D:xy            8
                        (      69.838 eV)
    87      87       --         2.567 au  H             1.00      1 D:xz            8
                        (      69.838 eV)
    88      88       --         2.567 au  H             1.00      1 D:yz            8
                        (      69.838 eV)
    89      89      1.000      -0.238 au  H             1.00      1 S               9
                        (      -6.484 eV)
    90      90       --         0.077 au  H             1.00      2 S               9
                        (       2.096 eV)
    91      91       --         1.521 au  H             1.00      3 S               9
                        (      41.380 eV)
    92      92       --         0.410 au  H             1.00      1 P:x             9
                        (      11.162 eV)
    93      93       --         0.410 au  H             1.00      1 P:y             9
                        (      11.162 eV)
    94      94       --         0.410 au  H             1.00      1 P:z             9
                        (      11.162 eV)
    95      95       --         2.567 au  H             1.00      1 D:z2            9
                        (      69.838 eV)
    96      96       --         2.567 au  H             1.00      1 D:x2-y2         9
                        (      69.838 eV)
    97      97       --         2.567 au  H             1.00      1 D:xy            9
                        (      69.838 eV)
    98      98       --         2.567 au  H             1.00      1 D:xz            9
                        (      69.838 eV)
    99      99       --         2.567 au  H             1.00      1 D:yz            9
                        (      69.838 eV)
   100     100      1.000      -0.238 au  H             1.00      1 S              10
                        (      -6.484 eV)
[...]
    16     H      -0.021766   0.007266  -0.002964
    17     H      -0.020581   0.004444  -0.009234
    18     H       0.004666   0.013580  -0.072087
    19     H      -0.042979  -0.012932  -0.013701
    20     H       0.207122   0.001517   0.025347
 
 Mode:    48      Frequency (cm-1):     1709.5566     Intensity (km/mol):      338.8786
 Index  Atom      ---- Displacements (x/y/z) ----
     1     H       0.243767   0.009943   0.026721
     2     C      -0.042971   0.001650  -0.006517
     3     C      -0.045684   0.013982  -0.013666
     4     C       0.633130  -0.217696   0.202739
     5     O      -0.408148   0.163415  -0.143593
     6     H       0.005062   0.015913  -0.007922
     7     C       0.001316   0.002153   0.000481
     8     C       0.011770  -0.000451   0.001799
     9     C       0.002129   0.000881  -0.000159
    10     C       0.001605   0.000924  -0.001779
    11     H      -0.001821  -0.003681  -0.000498
    12     H       0.002126  -0.004480  -0.003177
    13     H      -0.004440   0.002061  -0.001220
    14     H      -0.002390  -0.001773   0.002983
    15     H       0.004428  -0.015482   0.008737
    16     H      -0.018030   0.002096   0.005418
    17     H      -0.016484  -0.005665  -0.008341
    18     H       0.000921   0.000485   0.005784
    19     H      -0.004342   0.001707  -0.001844
    20     H      -0.414437  -0.230449   0.074551
 
 Mode:    49      Frequency (cm-1):     2799.1242     Intensity (km/mol):      112.9632
 Index  Atom      ---- Displacements (x/y/z) ----
     1     H       0.000448   0.006449  -0.003493
     2     C      -0.000117  -0.001363   0.000736
     3     C      -0.002509   0.000082  -0.000375
     4     C       0.003631   0.071847  -0.039270
     5     O      -0.002890   0.000778  -0.000807
     6     H       0.008983   0.016204  -0.007764
     7     C       0.000189   0.000042   0.000002
     8     C       0.000326  -0.000515   0.000327
     9     C       0.000052  -0.000044   0.000036
    10     C       0.000188   0.000041   0.000002
    11     H       0.000620  -0.000831  -0.000777
    12     H      -0.001097  -0.001252  -0.000332
    13     H       0.000207   0.001884  -0.000794
    14     H       0.000356   0.000261   0.001215
    15     H      -0.000562  -0.000757   0.000334
    16     H      -0.000671   0.000073  -0.000803
    17     H      -0.000801   0.000600   0.000187
    18     H      -0.001261  -0.000529   0.000997
    19     H       0.000253   0.001706  -0.001110
    20     H       0.018436  -0.870710   0.484055
 
 Mode:    50      Frequency (cm-1):     2991.5346     Intensity (km/mol):       23.7346
 Index  Atom      ---- Displacements (x/y/z) ----
     1     H      -0.000002   0.000341   0.000042
     2     C       0.000028  -0.000117   0.000082
     3     C      -0.000025  -0.000041  -0.000007
     4     C       0.000014  -0.000006  -0.000048
     5     O      -0.000006   0.000003   0.000006
     6     H       0.000081   0.001715  -0.000735
     7     C      -0.021931   0.024293   0.014968
     8     C       0.000085  -0.000436  -0.000714
     9     C       0.000261   0.000418  -0.001517
    10     C       0.013885   0.001405   0.029111
    11     H       0.193830  -0.247934  -0.177177
    12     H       0.427257   0.135276  -0.009938
    13     H      -0.029526  -0.384218   0.206904
    14     H      -0.140078  -0.035595  -0.371973
    15     H      -0.012752  -0.003651   0.000004
    16     H       0.007080   0.000733   0.020807
    17     H       0.002615  -0.001894  -0.002889
    18     H      -0.383057  -0.115051   0.020246
    19     H       0.026125   0.346508  -0.184148
    20     H      -0.000005  -0.000106   0.000166
 
 Mode:    51      Frequency (cm-1):     2993.8615     Intensity (km/mol):       26.9316
 Index  Atom      ---- Displacements (x/y/z) ----
     1     H      -0.000373  -0.006206   0.003382
     2     C      -0.000330   0.001875  -0.001074
     3     C       0.000433   0.000691  -0.000324
     4     C      -0.000146  -0.000250   0.000116
     5     O       0.000069   0.000002   0.000008
     6     H      -0.001815  -0.024886   0.013468
     7     C       0.016393  -0.017726  -0.012687
     8     C       0.000063   0.000684  -0.000418
     9     C      -0.002708  -0.022493   0.011832
    10     C       0.012904   0.002977   0.028210
    11     H       0.191098  -0.245560  -0.177668
    12     H      -0.323113  -0.101368   0.007821
    13     H       0.021737   0.279687  -0.150854
    14     H       0.107868   0.029232   0.290274
    15     H       0.293131   0.082370  -0.004095
    16     H      -0.101062  -0.026973  -0.281597
    17     H      -0.161416   0.207361   0.147400
    18     H      -0.368394  -0.110402   0.018437
    19     H       0.024441   0.321982  -0.170821
    20     H      -0.000024   0.002446  -0.001351
 
 Mode:    52      Frequency (cm-1):     3001.9493     Intensity (km/mol):       13.3222
 Index  Atom      ---- Displacements (x/y/z) ----
     1     H       0.000041  -0.013984   0.007702
     2     C       0.001031  -0.003450   0.002036
     3     C      -0.000581   0.001175  -0.000720
     4     C       0.000031   0.000199  -0.000105
     5     O      -0.000082  -0.000002  -0.000010
     6     H       0.001583   0.042238  -0.023022
     7     C      -0.010644   0.012674   0.007568
     8     C      -0.000073   0.000436  -0.000245
     9     C      -0.002688  -0.037420   0.020082
    10     C      -0.007517  -0.000676  -0.017182
    11     H      -0.108593   0.140382   0.102270
    12     H       0.204900   0.063912  -0.005509
    13     H      -0.013189  -0.192500   0.101326
    14     H      -0.067163  -0.018798  -0.182847
    15     H       0.460011   0.130656  -0.007177
    16     H      -0.165884  -0.040635  -0.466660
    17     H      -0.264493   0.344509   0.240461
    18     H       0.210815   0.063462  -0.009897
    19     H      -0.013865  -0.196676   0.107161
    20     H       0.000531  -0.000297   0.000224
 
 Mode:    53      Frequency (cm-1):     3063.7778     Intensity (km/mol):        3.2215
 Index  Atom      ---- Displacements (x/y/z) ----
     1     H      -0.000058  -0.012451   0.006857
     2     C      -0.003684  -0.070763   0.038432
     3     C      -0.003117   0.001656  -0.001326
     4     C      -0.001489  -0.001232   0.000488
     5     O       0.000621  -0.000048   0.000107
     6     H       0.073364   0.833598  -0.448723
     7     C       0.009744   0.013944  -0.012076
     8     C       0.001257  -0.000453   0.000412
     9     C      -0.005998   0.001893  -0.002098
    10     C       0.005986   0.016040  -0.002016
    11     H       0.042097  -0.049549  -0.039848
    12     H      -0.136809  -0.036209   0.001301
    13     H      -0.008889  -0.139665   0.073731
    14     H       0.027715   0.011012   0.067900
    15     H       0.035660   0.009741  -0.000445
    16     H       0.014355   0.002915   0.043821
    17     H       0.021848  -0.030783  -0.020676
    18     H      -0.107299  -0.027513   0.001391
    19     H      -0.007946  -0.112769   0.061469
    20     H       0.003976   0.015788  -0.008228
 
 Mode:    54      Frequency (cm-1):     3068.1819     Intensity (km/mol):        0.5086
 Index  Atom      ---- Displacements (x/y/z) ----
     1     H      -0.000022  -0.002554   0.000691
     2     C      -0.000228  -0.004119   0.002259
     3     C      -0.000176   0.000290  -0.000034
     4     C      -0.000097  -0.000056   0.000055
     5     O       0.000036  -0.000008  -0.000001
     6     H       0.004685   0.048506  -0.027190
     7     C      -0.044850  -0.050940   0.019368
     8     C      -0.000035  -0.000221   0.000054
     9     C       0.002262   0.001102   0.002244
    10     C       0.037244   0.042647  -0.019005
    11     H       0.009412   0.012399  -0.004319
    12     H       0.517839   0.148011  -0.009377
    13     H       0.020917   0.470695  -0.250227
    14     H      -0.003312  -0.010777   0.029066
    15     H      -0.021947  -0.005677   0.002034
    16     H      -0.010147  -0.001711  -0.027227
    17     H       0.005516  -0.005123  -0.002713
    18     H      -0.434720  -0.121106   0.013081
    19     H      -0.019065  -0.399009   0.217911
    20     H       0.000256   0.000981  -0.000559
 
 Mode:    55      Frequency (cm-1):     3071.2176     Intensity (km/mol):        7.1418
 Index  Atom      ---- Displacements (x/y/z) ----
     1     H      -0.001123  -0.023077   0.012599
     2     C      -0.000721  -0.012634   0.006846
     3     C      -0.000408   0.002079  -0.001214
     4     C      -0.000409  -0.000209   0.000060
     5     O       0.000142  -0.000028   0.000033
     6     H       0.014367   0.149102  -0.080000
     7     C      -0.034096  -0.020766  -0.012152
     8     C      -0.000117  -0.000760   0.000489
     9     C       0.061995   0.001072   0.012476
    10     C      -0.044591  -0.013219   0.020215
    11     H       0.119327  -0.171589  -0.119553
    12     H       0.331550   0.098637  -0.013229
    13     H      -0.001087   0.130140  -0.073803
    14     H       0.077057   0.020387   0.230708
    15     H      -0.534704  -0.160924   0.014453
    16     H      -0.086826  -0.022636  -0.288276
    17     H      -0.116625   0.174939   0.122825
    18     H       0.411152   0.123486  -0.011725
    19     H       0.002030   0.207352  -0.110750
    20     H       0.001077   0.003716  -0.001919
 
 Mode:    56      Frequency (cm-1):     3073.6788     Intensity (km/mol):        1.1717
 Index  Atom      ---- Displacements (x/y/z) ----
     1     H       0.000003   0.000340  -0.000191
     2     C       0.000024   0.000543  -0.000313
     3     C       0.000005  -0.000017   0.000042
     4     C       0.000008  -0.000004  -0.000020
     5     O      -0.000001  -0.000000  -0.000001
     6     H      -0.000660  -0.006986   0.003204
     7     C      -0.026406   0.010046  -0.045939
     8     C       0.000156   0.000007  -0.000156
     9     C      -0.004192   0.023500   0.043437
    10     C       0.040203  -0.038762  -0.013047
    11     H      -0.267643   0.351123   0.262478
    12     H       0.174610   0.057696  -0.015531
    13     H      -0.022208  -0.229059   0.111313
    14     H       0.161543   0.052022   0.452315
    15     H      -0.017798   0.000712   0.011169
    16     H      -0.132225  -0.023643  -0.358370
    17     H       0.199555  -0.257167  -0.169829
    18     H      -0.235746  -0.082203   0.006692
    19     H       0.023939   0.193039  -0.112883
    20     H      -0.000037  -0.000065   0.000095
 
 Mode:    57      Frequency (cm-1):     3075.7297     Intensity (km/mol):       50.9363
 Index  Atom      ---- Displacements (x/y/z) ----
     1     H       0.000163   0.001090  -0.000599
     2     C       0.000970   0.016835  -0.009143
     3     C       0.000644  -0.000284   0.000235
     4     C       0.000263   0.000337  -0.000147
     5     O      -0.000087  -0.000008  -0.000009
     6     H      -0.020796  -0.203557   0.109204
     7     C       0.011009   0.035625  -0.036887
     8     C       0.000808   0.002250  -0.000961
     9     C       0.035209   0.000918   0.008601
    10     C       0.006274   0.061916  -0.008725
    11     H       0.176058  -0.211725  -0.169064
    12     H      -0.199205  -0.051130  -0.003187
    13     H      -0.024758  -0.413482   0.211070
    14     H       0.090470   0.034165   0.233076
    15     H      -0.312411  -0.095451   0.009796
    16     H      -0.052241  -0.013660  -0.171563
    17     H      -0.058337   0.088838   0.063429
    18     H      -0.221245  -0.050591   0.005258
    19     H      -0.032445  -0.480614   0.270589
    20     H      -0.000854  -0.003963   0.002076
 
 Mode:    58      Frequency (cm-1):     3078.3358     Intensity (km/mol):       38.8774
 Index  Atom      ---- Displacements (x/y/z) ----
     1     H       0.000319   0.006481  -0.003707
     2     C       0.000171   0.002969  -0.001427
     3     C       0.000231  -0.000572   0.000532
     4     C       0.000142   0.000056  -0.000053
     5     O      -0.000056   0.000013   0.000004
     6     H      -0.002985  -0.033103   0.017263
     7     C      -0.034960   0.003085  -0.046270
     8     C      -0.000920  -0.000634  -0.001921
     9     C      -0.013988  -0.031764  -0.062194
    10     C       0.001001  -0.007024  -0.000081
    11     H      -0.031095   0.038965   0.031553
    12     H       0.263662   0.083160  -0.019622
    13     H      -0.019594  -0.174664   0.082075
    14     H       0.173998   0.057047   0.494263
    15     H       0.192882   0.050626  -0.020235
    16     H       0.206047   0.036670   0.577302
    17     H      -0.230121   0.292088   0.189519
    18     H       0.020451   0.004169   0.000994
    19     H       0.002947   0.042920  -0.023356
    20     H      -0.000264  -0.001118   0.000489
 
 Mode:    59      Frequency (cm-1):     3078.6438     Intensity (km/mol):       46.2090
 Index  Atom      ---- Displacements (x/y/z) ----
     1     H       0.000592   0.014897  -0.007998
     2     C       0.000271   0.003849  -0.002182
     3     C       0.000415  -0.001468   0.000760
     4     C       0.000252   0.000108  -0.000006
     5     O      -0.000099   0.000011  -0.000028
     6     H      -0.003743  -0.042690   0.023262
     7     C      -0.022733  -0.004903  -0.019490
     8     C      -0.002334   0.000721   0.000442
     9     C      -0.055729   0.019163   0.026151
    10     C      -0.047497   0.029233   0.016774
    11     H       0.262769  -0.348983  -0.260420
    12     H       0.206309   0.060688  -0.012091
    13     H      -0.007178  -0.030194   0.010163
    14     H       0.080120   0.023988   0.231045
    15     H       0.437429   0.139077  -0.003960
    16     H      -0.036912  -0.001379  -0.061072
    17     H       0.269474  -0.369244  -0.246981
    18     H       0.328302   0.108847  -0.007109
    19     H      -0.018711  -0.109634   0.067385
    20     H      -0.000481  -0.001643   0.000911
 
 Mode:    60      Frequency (cm-1):     3143.2473     Intensity (km/mol):        3.7459
 Index  Atom      ---- Displacements (x/y/z) ----
     1     H      -0.012627   0.871778  -0.480168
     2     C      -0.004604   0.000240  -0.000736
     3     C       0.004222  -0.075430   0.041969
     4     C       0.002604  -0.000496   0.000611
     5     O      -0.000661   0.000300  -0.000252
     6     H      -0.000208   0.020440  -0.011276
     7     C      -0.000165  -0.000361   0.000324
     8     C      -0.000135  -0.000357   0.000177
     9     C       0.002226  -0.000788   0.000663
    10     C      -0.000137  -0.000473   0.000097
    11     H      -0.001006   0.001144   0.001053
    12     H       0.003762   0.000864  -0.000201
    13     H       0.000124   0.004031  -0.002106
    14     H      -0.000672  -0.000353  -0.001774
    15     H      -0.012605  -0.002498  -0.000390
    16     H      -0.006941  -0.001797  -0.019927
    17     H      -0.011746   0.015429   0.010839
    18     H       0.003709   0.001042   0.000135
    19     H       0.000127   0.003871  -0.002179
    20     H       0.000835   0.006041  -0.003245

PES point character: Geometry corresponds to a local minimum on the PES.




 ============================
 Statistical Thermal Analysis  ***  ideal gas assumed  ***
 ============================
  
 Pressure:                  1.000000 atm.
 Temperature:             298.150000 K



 Moments of Inertia [amu*bohr^2] and principal axis
 ==================================================

         435.4807       1979.8743       2015.5282
 ------------------------------------------------
           0.9934         -0.0114          0.1138
           0.0648          0.8759         -0.4782
           0.0942         -0.4824         -0.8709


 The rotational contribution to the molecular entropy includes
 a term, dependent on the symmetry number sigma. The results 
 reported below were computed using sigma = 1, determined from
 the point group symmetry of the input geometry (NOSYM). 
 If this is not the correct symmetry, try symmetrizing the molecule before
 running the calculation (note: linear molecules should be aligned along one
 of the Cartesian axes).
 Contributions from frequencies below 20 1/cm are not included in vibrational sums.
 Their contributions, if any, are reported separately.


     Temp                                                        Transl      Rotat     Vibrat     Total
     ----                                                        ------      -----     ------     -----

     298.15   Entropy (cal/mol-K):                               40.058     28.943     25.751     94.752
              Nuclear Internal Energy (kcal/mol):                 0.889      0.889    111.407    113.185
              Constant Volume Heat Capacity (cal/mol-K):          2.981      2.981     29.864     35.826
          (c) Constant Volume Heat Capacity (cal/mol-K):          2.981      2.981     28.503     34.465

       Summary of energy terms
                                                   hartree              eV         kcal/mol           kJ/mol
                                      --------------------     -----------       ----------      -----------
      Energy from Engine:               -4.027280061873680       -109.5879         -2527.16        -10573.62
      Nuclear Internal Energy:           0.180371360000826          4.9082           113.18           473.56
  (c) Nuclear Internal Energy:           0.179637904642862          4.8882           112.72           471.64
      Internal Energy U:                -3.846908701872854       -104.6797         -2413.97        -10100.06
      pV/n = RT:                         0.000944186013486          0.0257             0.59             2.48
      Enthalpy H:                       -3.845964515859368       -104.6540         -2413.38        -10097.58
      -T*S:                             -0.045019840685007         -1.2251           -28.25          -118.20
  (c) -T*S:                             -0.044556255177936         -1.2124           -27.96          -116.98
      Gibbs free energy:                -3.890984356544375       -105.8791         -2441.63        -10215.78
 
 
 
  (c) The properties marked with this symbol have been corrected using 'low vibrational frequency free rotor
      interpolation corrections'. For those terms all positive frequencies are used (also ones below 20 1/cm),
      but the contribution to the partition function of small vibrational frequencies is modified as described
      in the following paper:
      S. Grimme, 'Supramolecular Binding Thermodynamics by Dispersion-Corrected Density Functional Theory'
      (Chem. Eur. J. 2012, 18, 9955-9964)
      Configuration: Dampener Frequency          :   100.000 1/cm
                     Dampener Alpha              :     4.000
                     Averaging Moment of Inertia : 1.000E-44 kg m2

--------------
Atomic charges
--------------
  Index   Atom    Charge
      1      H   -0.2077
      2      C    0.3659
      3      C    0.1846
      4      C    0.6452
      5      O   -0.4969
      6      H   -0.2065
      7      C    0.7226
      8      C   -0.0367
      9      C    0.7339
     10      C    0.7228
     11      H   -0.2314
     12      H   -0.2286
     13      H   -0.2428
     14      H   -0.2312
     15      H   -0.2526
     16      H   -0.2366
     17      H   -0.2364
     18      H   -0.2284
     19      H   -0.2430
     20      H   -0.2964


Dipole moment vector    (Debye):    -4.25562467    0.45222108   -0.80778296
              magnitude (Debye):     4.35515310


Final PES point is a local minimum. Geometry optimization successful!


AMS application finished. Exiting.
NORMAL TERMINATION
     Total cpu time:   21181.47
  Total system time:      75.05
 Total elapsed time:   42738.12
 WARNING: total elapsed time is much higher than the (CPU+system) time. 
 Make sure the machine is not oversubscribed and has enough memory, SCM_TMPDIR p
 oints to a fast file system, and the network is fast enough.
