

 Parallel Execution: Process Information
 ==============================================================================
 Rank   Node Name                              NodeID   MyNodeRank  NodeMaster
    0   node120                                   0          0          0
    1   node120                                   0          1         -1
    2   node120                                   0          2         -1
    3   node120                                   0          3         -1
 ==============================================================================


May use up to 122928MB of RAM as shared memory on node 0

 *******************************************************************************
 *                                                                             *
 *  --------------------------------                                           *
 *   Amsterdam Modeling Suite (AMS)              2021.102                      *
 *  --------------------------------                                           *
 *                                               r95042 2021-06-07             *
 *                                                                             *
 *                                                                             *
 *                              =================                              *
 *                              |               |                              *
 *                              |     A M S     |                              *
 *                              |               |                              *
 *                              =================                              *
 *                                                                             *
 *                                                                             *
 *   Online information and documentation:  https://www.scm.com/support/       *
 *   E-mail:  support@scm.com   info@scm.com                                   *
 *                                                                             *
 *   Scientific publications using AMS results must be properly referenced     *
 *   See the User Manuals (or the web site) for recommended citations          *
 *   The terms and conditions of the End User License Agreement apply to       *
 *   the use of AMS, https://www.scm.com/license-terms/                        *
 *                                                                             *
 **********************  x86_64_linux_intel / intelmpi  ************************
 
 Licensed to: VU/FEW (+ SARA) / ALGEMEEN / Amsterdam / THE NETHERLANDS
 SCM User ID: u7668
  
 AMS 2021.102  RunTime: Jan28-2022 10:52:37  ShM Nodes: 1  Procs: 4

 AMS jobname: 39.achiral_catalyst.H_tBu_BF3.TS
 AMS jobid  : 2090801023

 Start   directory: /scistor/tc/yhk800/MasterProject/calculations/achiral_catalyst_H_tBu_BF3/39.achiral_catalyst.H_tBu_BF3.TS/
 Results directory: /scistor/tc/yhk800/MasterProject/calculations/achiral_catalyst_H_tBu_BF3/39.achiral_catalyst.H_tBu_BF3.TS/
 Scratch directory: /scratch/5503/amstmp_39.achiral_catalyst.H_tBu_BF3.TS_kid0.2090801023/


 Communication costs MPI_COMM_WORLD:      0.977 usec per message,   0.0125 usec per 8-byte item
 Communication costs for intra-node:      1.000 usec per message,   0.0078 usec per 8-byte item

 RNG seed: -1430764850 -49982893 1289759235 1578461849 -1409743326 -1780580348 -1179097104 -264002645



                      ************************************************************************
                      *  ADF 2021.102  RunTime: Jan28-2022 10:52:38  ShM Nodes: 1  Procs: 4  *
                      ************************************************************************
  
       *****************************
       *  TRANSITION STATE SEARCH  *
       *****************************

Optimization Method                    Quasi Newton
Optimization Coordinates               Delocalized Coordinates
Optimize lattice                       F
 
 ------------------------------------------------------
 Convergence criteria (Hartree,Angstrom)
 ------------------------------------------------------
 Maximum gradient               0.001000000000
 Maximum rms gradient           0.000666666667
 Maximum step allowed           0.010000000000
 Maximum rms step allowed       0.006666666667
 Maximum energy change allowe   0.000280000000
 Maximum stress energy allowe   0.000500000000
 
Initial model Hessian                  Automatic Hessian
 
------------------------------------
Quasi-Newton Optimizer Parameters
------------------------------------
Hessian Update Method                  Bofill
Maximum number of steps                  250
First GDIIS cycle                          0
Maximum GDIIS vectors                      0
Trust radius (bohr)                        0.200000
Trust radius varies                        F
Constraints converged at all steps         T
Use projector                              T
 
 Rigid motions settings for: old optimizer
 Atomic rotations (x,y,z):     T T T
 Atomic translations (x,y,z):  T T T
 Tolerance:                   1.000000000000000E-006
 
           1  TSRC entries:
    i   type      a1    a2    a3    a4    coef
    1 Distance     2    10               -1.000
 
--------
Geometry
--------
Formula: C8H15BF3O
Atoms
  Index Symbol   x (angstrom)   y (angstrom)   z (angstrom)
      1      H     0.19369716    -1.85361092    -0.24516176
      2      C    -0.92057816    -0.12292898     0.28183759
      3      C     0.21368396    -0.77846351    -0.06958517
      4      C     1.52168394    -0.13059856    -0.22805405
      5      O     2.57084417    -0.68022178    -0.54313771
      6      H    -0.93117356     0.95749943     0.37346659
      7      H    -1.16677948    -1.14795174     3.01281369
      8      H    -2.10496465     0.45730942     2.86041604
      9      H    -0.24714630     0.47546451     3.02589233
     10      C    -1.16197426    -0.07675120     2.85297480
     11      C    -2.70617814    -1.13198073    -1.13307527
     12      C    -2.27774025    -0.85018701     0.31024211
     13      C    -3.29814455     0.05623311     1.00544670
     14      C    -2.10857613    -2.16055035     1.08513774
     15      H    -1.77993511    -1.95738108     2.10497923
     16      H    -3.66728922    -1.64847593    -1.15378817
     17      H    -1.96534043    -1.75736397    -1.63248955
     18      H    -2.80193402    -0.19835583    -1.68853426
     19      H    -4.27589769    -0.42685762     1.04485445
     20      H    -3.39798001     0.99804667     0.46472548
     21      H    -2.97770152     0.27467949     2.02473899
     22      H    -3.05288672    -2.70596191     1.12678586
     23      H    -1.36362000    -2.79302204     0.60101043
     24      H     1.51741535     0.92352060    -0.04443873
     25      B     3.93691787     0.31396217    -0.73139533
     26      F     3.73092324     0.82255335     0.45968178
     27      F     3.38790202     0.86879872    -1.78519866
     28      F     4.69192834    -0.74946557    -0.86866911
 
Total System Charge             0.00000
 
 
----------------
ADF Engine Input
----------------
 
 NumericalQuality VeryGood
 SCF
 Converge 1.0e-6
 Iterations 99
 End
 SYMMETRY NOSYM
 SpinPolarization 1.0
 Unrestricted Yes
 XC
 GGA OLYP
 End
 basis
 core None
 type TZ2P
 End
 

 Title: *** (NO TITLE) ***

 Using automatic Hessian for delocalized coordinates.
 *** GOStep1 ***

 Energy gradients wrt nuclear displacements
 ==========================================

     Atom      Cartesian (a.u./angstrom)
                 X         Y         Z
 ----------------------------------------
     1 H    -0.003757 -0.004300 -0.000808
     2 C     0.012250  0.021923  0.005017
     3 C    -0.044832  0.001418  0.008302
     4 C     0.073971  0.029019 -0.008292
     5 O     0.105376  0.099381 -0.007786
     6 H    -0.003578 -0.006209  0.000597
     7 H    -0.013713 -0.026980 -0.023017
     8 H    -0.042631 -0.001376 -0.039028
     9 H    -0.003992 -0.000794 -0.001038
    10 C    -0.041570 -0.022802 -0.043785
    11 C    -0.000441 -0.000139  0.005119
    12 C    -0.019059 -0.016918 -0.016605
    13 C     0.024500  0.003870  0.016214
    14 C     0.012312  0.018682  0.009663
    15 H     0.017118  0.028409  0.028978
    16 H     0.004038  0.001112  0.000458
    17 H     0.000648  0.001519  0.004687
    18 H     0.001631 -0.001974  0.006059
    19 H     0.005827 -0.000477  0.001994
    20 H     0.004401 -0.005719  0.001843
    21 H     0.046969  0.004901  0.043383
    22 H     0.003370  0.004266  0.001964
    23 H     0.003900  0.007651 -0.002881
    24 H    -0.001414 -0.040963 -0.006375
    25 B     0.094698  0.097044 -0.011393
    26 F    -0.073479 -0.106858 -0.092917
    27 F    -0.035479 -0.105167  0.100269
    28 F    -0.127063  0.021480  0.019376
 ----------------------------------------
 Mulliken charges used for AMS results%charges...
           Primitive Internal Coordinates (atoms in internal order)
-------------------------------------------------------------------------------
    index    type      i       j       k       l   value(A,deg)     TSRC Vect
-------------------------------------------------------------------------------
       1     bnd       1       3       0       0     1.08957265    -0.00000000
       2     bnd       2       6       0       0     1.08435865     0.00000000
       3     bnd       2      12       0       0     1.54000000    -0.00841300
       4     bnd       2       3       0       0     1.35638270    -0.00000000
       5     bnd       3       4       0       0     1.46823204    -0.00000000
       6     bnd       4      24       0       0     1.07000000     0.00000000
       7     bnd       4       5       0       0     1.22560213     0.00000000
       8     bnd       5      25       0       0     1.70000000    -0.00000000
       9     bnd       8      10       0       0     1.08374674    -0.00712836
      10     bnd       7      10       0       0     1.08307071    -0.00530995
      11     bnd       9      10       0       0     1.08247534    -0.00000000
      12     bnd      11      17       0       0     1.09057752     0.00000000
      13     bnd      11      12       0       0     1.53170878     0.00000000
      14     bnd      12      14       0       0     1.53170879    -0.01050536
      15     bnd      12      13       0       0     1.53170878    -0.01362022
      16     bnd      13      19       0       0     1.09129777     0.00000000
      17     bnd      13      21       0       0     1.09057752    -0.04308487
      18     bnd      14      22       0       0     1.09129777    -0.00000000
      19     bnd      14      15       0       0     1.09057752    -0.03932883
      20     bnd      11      16       0       0     1.09129777     0.00000000
      21     bnd      11      18       0       0     1.09057752     0.00000000
      22     bnd      13      20       0       0     1.09057753    -0.00000000
      23     bnd      14      23       0       0     1.09057752     0.00000000
      24     bnd      25      27       0       0     1.31139752    -0.00000000
      25     bnd      25      26       0       0     1.31139752     0.00000000
      26     bnd      25      28       0       0     1.31139752     0.00000000
      27     bnd       7      15       0       0     1.36209364    -0.03085990
      28     bnd       8      21       0       0     1.22203906    -0.03287133
      29     ang       6       2      12       0   117.41061246     0.00000000
      30     ang       6       2       3       0   120.77103538     0.00000000
      31     ang      12       2       3       0   120.89733876    -0.00000000
      32     ang       1       3       2       0   120.21909900    -0.00000000
      33     ang       1       3       4       0   115.74474309    -0.00000000
      34     ang       2       3       4       0   124.03410402     0.00000000
      35     ang       3       4      24       0   114.37019779     0.00000000
      36     ang       3       4       5       0   126.33327002    -0.00000000
      37     ang      24       4       5       0   119.29637471     0.00000000
      38     ang       4       5      25       0   117.00680806     0.00000000
      39     ang      10       7      15       0   119.43110153     0.01106394
      40     ang      10       8      21       0   122.89272049     0.01286683
      41     ang       8      10       7       0   118.84988012    -0.00411492
      42     ang       8      10       9       0   118.87311123    -0.00658368
      43     ang       7      10       9       0   118.99448321    -0.00549185
      44     ang      17      11      12       0   110.30372147     0.00000000
      45     ang      17      11      16       0   108.55265565     0.00000000
      46     ang      17      11      18       0   108.50099190    -0.00000000
      47     ang      12      11      16       0   110.56689159    -0.00000000
      48     ang      12      11      18       0   110.30372122     0.00000000
      49     ang      16      11      18       0   108.55265584    -0.00000000
      50     ang       2      12      11       0   108.42142155     0.04847580
      51     ang       2      12      14       0   108.42142138    -0.02580540
      52     ang       2      12      13       0   108.42142163    -0.02690602
      53     ang      11      12      14       0   110.50030803    -0.02126142
      54     ang      11      12      13       0   110.50030844    -0.02194200
      55     ang      14      12      13       0   110.50030810     0.04727065
      56     ang      12      13      19       0   110.56689169     0.00016065
      57     ang      12      13      21       0   110.30372120    -0.02078036
      58     ang      12      13      20       0   110.30372081     0.00943778
      59     ang      19      13      21       0   108.55265628     0.03169333
      60     ang      19      13      20       0   108.55265560    -0.00196474
      61     ang      21      13      20       0   108.50099212    -0.01826548
      62     ang      12      14      22       0   110.56689120    -0.00205677
      63     ang      12      14      15       0   110.30372073    -0.01984715
      64     ang      12      14      23       0   110.30372111     0.01122531
      65     ang      22      14      15       0   108.55265617     0.03417305
      66     ang      22      14      23       0   108.55265628    -0.00188086
      67     ang      15      14      23       0   108.50099221    -0.02135436
      68     ang      14      15       7       0   150.41554278    -0.08611095
      69     ang      13      21       8       0   151.51189577    -0.09075394
      70     ang       5      25      27       0    89.99999964    -0.00000000
      71     ang       5      25      26       0    90.00000000    -0.00000000
      72     ang       5      25      28       0    89.99999975     0.00000000
      73     ang      27      25      26       0   120.00000012     0.00000000
      74     ang      27      25      28       0   119.99999990     0.00000000
      75     ang      26      25      28       0   119.99999998    -0.00000000
      76     dih       6       2      12      11    97.82854891    -0.00048423
      77     dih       6       2      12      14   217.82854865    -0.01295263
      78     dih       6       2      12      13   -22.17145147     0.01343686
      79     dih       3       2      12      11   -71.27064345    -0.00048423
      80     dih       3       2      12      14    48.72935630    -0.01295263
      81     dih       3       2      12      13   168.72935617     0.01343686
      82     dih       6       2       3       1   185.43025046    -0.00000000
      83     dih       6       2       3       4     5.97435318     0.00000000
      84     dih      12       2       3       1    -5.83693582     0.00000000
      85     dih      12       2       3       4   174.70716690     0.00000000
      86     dih       1       3       4      24   180.37552847     0.00000000
      87     dih       1       3       4       5     0.52197473    -0.00000000
      88     dih       2       3       4      24    -0.14644617    -0.00000000
      89     dih       2       3       4       5   180.00000148    -0.00000000
      90     dih       3       4       5      25   177.13092032     0.00000000
      91     dih      24       4       5      25    -2.71611828     0.00000000
      92     dih       4       5      25      27   -67.45999846     0.00000000
      93     dih       4       5      25      26    52.54000166     0.00000000
      94     dih       4       5      25      28   172.54000164    -0.00000000
      95     dih      21       8      10       7   -64.89060948    -0.04846506
      96     dih      21       8      10       9   135.76133749     0.00165511
      97     dih      15       7      10       8    64.25404055     0.05398918
      98     dih      15       7      10       9   223.57678807     0.00358044
      99     dih      17      11      12       2    59.92224995     0.00057907
     100     dih      17      11      12      14   -58.77116296     0.01491073
     101     dih      17      11      12      13   178.61566341    -0.01548980
     102     dih      16      11      12       2   180.00000000     0.00057907
     103     dih      16      11      12      14    61.30658712     0.01491073
     104     dih      16      11      12      13   -61.30658651    -0.01548980
     105     dih      18      11      12       2   -59.92224980     0.00057907
     106     dih      18      11      12      14   181.38433729     0.01491073
     107     dih      18      11      12      13    58.77116366    -0.01548980
     108     dih       2      12      14      22   179.99999915    -0.03039783
     109     dih       2      12      14      15    59.92224993    -0.05884902
     110     dih       2      12      14      23   -59.92224967    -0.02679816
     111     dih      11      12      14      22   -61.30658704     0.00047305
     112     dih      11      12      14      15   178.61566296    -0.02797813
     113     dih      11      12      14      23    58.77116335     0.00407272
     114     dih      13      12      14      22    61.30658678    -0.00957018
     115     dih      13      12      14      15   -58.77116322    -0.03802136
     116     dih      13      12      14      23   181.38433718    -0.00597050
     117     dih       2      12      13      19   179.99999915     0.02851118
     118     dih       2      12      13      21   -59.92224944     0.05469386
     119     dih       2      12      13      20    59.92225015     0.02474432
     120     dih      11      12      13      19    61.30658640    -0.00129226
     121     dih      11      12      13      21   181.38433715     0.02489043
     122     dih      11      12      13      20   -58.77116326    -0.00505911
     123     dih      14      12      13      19   -61.30658719     0.00835329
     124     dih      14      12      13      21    58.77116356     0.03453597
     125     dih      14      12      13      20   178.61566315     0.00458643
     126     dih      12      13      21       8    31.37418389     0.00928867
     127     dih      19      13      21       8   152.65821231     0.01683841
     128     dih      20      13      21       8   -89.55318409     0.02193927
     129     dih      12      14      15       7   -23.92743686    -0.01378839
     130     dih      22      14      15       7   214.78853567    -0.02076142
     131     dih      23      14      15       7    96.99993126    -0.02562224
     132     dih      10       7      15      14    27.97958941     0.00097742
     133     dih      10       8      21      13   -35.32547570     0.00079617
     134     bnd       2      10       0       0     2.58285714    -0.61594090
Hessian eigenvector     1(    -0.036) has overlap with TSRC:    0.64765E+00
Hessian eigenvector     1 has the largest overlap with TSRC:  0.64765
           Primitive Internal Coordinates (atoms in internal order)
-------------------------------------------------------------------------------
    index    type      i       j       k       l   value(A,deg)     Max Ovl Vect
-------------------------------------------------------------------------------
       1     bnd       1       3       0       0     1.08957265    -0.00000000
       2     bnd       2       6       0       0     1.08435865     0.00000000
       3     bnd       2      12       0       0     1.54000000     0.00218219
       4     bnd       2       3       0       0     1.35638270     0.00000000
       5     bnd       3       4       0       0     1.46823204     0.00000000
       6     bnd       4      24       0       0     1.07000000    -0.00000000
       7     bnd       4       5       0       0     1.22560213     0.00000000
       8     bnd       5      25       0       0     1.70000000     0.00000000
       9     bnd       8      10       0       0     1.08374674     0.00147958
      10     bnd       7      10       0       0     1.08307071     0.00108111
      11     bnd       9      10       0       0     1.08247534    -0.00000000
      12     bnd      11      17       0       0     1.09057752     0.00000000
      13     bnd      11      12       0       0     1.53170878     0.00000000
      14     bnd      12      14       0       0     1.53170879     0.00289544
      15     bnd      12      13       0       0     1.53170878     0.00396885
      16     bnd      13      19       0       0     1.09129777     0.00000000
      17     bnd      13      21       0       0     1.09057752     0.01140658
      18     bnd      14      22       0       0     1.09129777    -0.00000000
      19     bnd      14      15       0       0     1.09057752     0.00998691
      20     bnd      11      16       0       0     1.09129777    -0.00000000
      21     bnd      11      18       0       0     1.09057752     0.00000000
      22     bnd      13      20       0       0     1.09057753     0.00000000
      23     bnd      14      23       0       0     1.09057752     0.00000000
      24     bnd      25      27       0       0     1.31139752     0.00000000
      25     bnd      25      26       0       0     1.31139752    -0.00000000
      26     bnd      25      28       0       0     1.31139752     0.00000000
      27     bnd       7      15       0       0     1.36209364     0.02098893
      28     bnd       8      21       0       0     1.22203906     0.01936461
      29     ang       6       2      12       0   117.41061246    -0.00000000
      30     ang       6       2       3       0   120.77103538    -0.00000000
      31     ang      12       2       3       0   120.89733876     0.00000000
      32     ang       1       3       2       0   120.21909900     0.00000000
      33     ang       1       3       4       0   115.74474309    -0.00000000
      34     ang       2       3       4       0   124.03410402     0.00000000
      35     ang       3       4      24       0   114.37019779    -0.00000000
      36     ang       3       4       5       0   126.33327002     0.00000000
      37     ang      24       4       5       0   119.29637471    -0.00000000
      38     ang       4       5      25       0   117.00680806     0.00000000
      39     ang      10       7      15       0   119.43110153     0.01426577
      40     ang      10       8      21       0   122.89272049     0.01900162
      41     ang       8      10       7       0   118.84988012     0.01947415
      42     ang       8      10       9       0   118.87311123     0.01049296
      43     ang       7      10       9       0   118.99448321     0.01026597
      44     ang      17      11      12       0   110.30372147     0.00000000
      45     ang      17      11      16       0   108.55265565     0.00000000
      46     ang      17      11      18       0   108.50099190    -0.00000000
      47     ang      12      11      16       0   110.56689159     0.00000000
      48     ang      12      11      18       0   110.30372122    -0.00000000
      49     ang      16      11      18       0   108.55265584    -0.00000000
      50     ang       2      12      11       0   108.42142155    -0.04508239
      51     ang       2      12      14       0   108.42142138     0.02813116
      52     ang       2      12      13       0   108.42142163     0.03104610
      53     ang      11      12      14       0   110.50030803     0.01088552
      54     ang      11      12      13       0   110.50030844     0.01082174
      55     ang      14      12      13       0   110.50030810    -0.03524179
      56     ang      12      13      19       0   110.56689169    -0.01201846
      57     ang      12      13      21       0   110.30372120     0.02852668
      58     ang      12      13      20       0   110.30372081     0.00013409
      59     ang      19      13      21       0   108.55265628    -0.03278900
      60     ang      19      13      20       0   108.55265560    -0.00260057
      61     ang      21      13      20       0   108.50099212     0.01832409
      62     ang      12      14      22       0   110.56689120    -0.00948296
      63     ang      12      14      15       0   110.30372073     0.02270325
      64     ang      12      14      23       0   110.30372111     0.00003664
      65     ang      22      14      15       0   108.55265617    -0.03187712
      66     ang      22      14      23       0   108.55265628    -0.00207001
      67     ang      15      14      23       0   108.50099221     0.02037455
      68     ang      14      15       7       0   150.41554278     0.13283604
      69     ang      13      21       8       0   151.51189577     0.13336886
      70     ang       5      25      27       0    89.99999964     0.00000000
      71     ang       5      25      26       0    90.00000000     0.00000000
      72     ang       5      25      28       0    89.99999975     0.00000000
      73     ang      27      25      26       0   120.00000012     0.00000000
      74     ang      27      25      28       0   119.99999990    -0.00000000
      75     ang      26      25      28       0   119.99999998    -0.00000000
      76     dih       6       2      12      11    97.82854891     0.00053499
      77     dih       6       2      12      14   217.82854865     0.00383550
      78     dih       6       2      12      13   -22.17145147    -0.00437049
      79     dih       3       2      12      11   -71.27064345     0.00053499
      80     dih       3       2      12      14    48.72935630     0.00383550
      81     dih       3       2      12      13   168.72935617    -0.00437049
      82     dih       6       2       3       1   185.43025046     0.00000000
      83     dih       6       2       3       4     5.97435318     0.00000000
      84     dih      12       2       3       1    -5.83693582    -0.00000000
      85     dih      12       2       3       4   174.70716690    -0.00000000
      86     dih       1       3       4      24   180.37552847    -0.00000000
      87     dih       1       3       4       5     0.52197473     0.00000000
      88     dih       2       3       4      24    -0.14644617     0.00000000
      89     dih       2       3       4       5   180.00000148     0.00000000
      90     dih       3       4       5      25   177.13092032    -0.00000000
      91     dih      24       4       5      25    -2.71611828    -0.00000000
      92     dih       4       5      25      27   -67.45999846    -0.00000000
      93     dih       4       5      25      26    52.54000166     0.00000000
      94     dih       4       5      25      28   172.54000164    -0.00000000
      95     dih      21       8      10       7   -64.89060948     0.13053161
      96     dih      21       8      10       9   135.76133749     0.00668728
      97     dih      15       7      10       8    64.25404055    -0.13729067
      98     dih      15       7      10       9   223.57678807    -0.01324405
      99     dih      17      11      12       2    59.92224995    -0.00117059
     100     dih      17      11      12      14   -58.77116296    -0.01433480
     101     dih      17      11      12      13   178.61566341     0.01550402
     102     dih      16      11      12       2   180.00000000    -0.00117059
     103     dih      16      11      12      14    61.30658712    -0.01433480
     104     dih      16      11      12      13   -61.30658651     0.01550402
     105     dih      18      11      12       2   -59.92224980    -0.00117059
     106     dih      18      11      12      14   181.38433729    -0.01433480
     107     dih      18      11      12      13    58.77116366     0.01550402
     108     dih       2      12      14      22   179.99999915     0.07022718
     109     dih       2      12      14      15    59.92224993     0.10140501
     110     dih       2      12      14      23   -59.92224967     0.06155300
     111     dih      11      12      14      22   -61.30658704     0.03883854
     112     dih      11      12      14      15   178.61566296     0.07001637
     113     dih      11      12      14      23    58.77116335     0.03016437
     114     dih      13      12      14      22    61.30658678     0.03591653
     115     dih      13      12      14      15   -58.77116322     0.06709436
     116     dih      13      12      14      23   181.38433718     0.02724235
     117     dih       2      12      13      19   179.99999915    -0.06784376
     118     dih       2      12      13      21   -59.92224944    -0.09802146
     119     dih       2      12      13      20    59.92225015    -0.05693570
     120     dih      11      12      13      19    61.30658640    -0.03819168
     121     dih      11      12      13      21   181.38433715    -0.06836939
     122     dih      11      12      13      20   -58.77116326    -0.02728362
     123     dih      14      12      13      19   -61.30658719    -0.03530694
     124     dih      14      12      13      21    58.77116356    -0.06548464
     125     dih      14      12      13      20   178.61566315    -0.02439888
     126     dih      12      13      21       8    31.37418389    -0.02230646
     127     dih      19      13      21       8   152.65821231    -0.04038119
     128     dih      20      13      21       8   -89.55318409    -0.05149937
     129     dih      12      14      15       7   -23.92743686     0.03517736
     130     dih      22      14      15       7   214.78853567     0.05314333
     131     dih      23      14      15       7    96.99993126     0.06198346
     132     dih      10       7      15      14    27.97958941    -0.01374500
     133     dih      10       8      21      13   -35.32547570     0.00535002
     134     bnd       2      10       0       0     2.58285714     0.91592106
 
----------------------------------------------------------------------
Geometry Convergence after Step   1       (Hartree/Angstrom,Angstrom)
----------------------------------------------------------------------
current energy                               -5.39329578 Hartree
energy change                      -5.39329578     0.00028000    F
constrained gradient max            0.12706031     0.00100000    F
constrained gradient rms            0.03979543     0.00066667    F
gradient max                        0.12706031
gradient rms                        0.03979543
cart. step max                      0.10552551     0.01000000    F
cart. step rms                      0.02659775     0.00666667    F
 
 
--------
Geometry
--------
Formula: C8H15BF3O
Atoms
  Index Symbol   x (angstrom)   y (angstrom)   z (angstrom)
      1      H     0.19262144    -1.86742552    -0.24037695
      2      C    -0.93763089    -0.14360555     0.28398831
      3      C     0.20199728    -0.79266577    -0.06349217
      4      C     1.50177044    -0.13148406    -0.21526004
      5      O     2.55635987    -0.67693973    -0.52761591
      6      H    -0.94717602     0.93723770     0.37592373
      7      H    -1.14798773    -1.14803607     2.99506902
      8      H    -2.06540548     0.46611530     2.84111106
      9      H    -0.20187348     0.46408476     2.99229162
     10      C    -1.12598447    -0.07681848     2.83167768
     11      C    -2.73734557    -1.14359585    -1.13191473
     12      C    -2.29927042    -0.86218204     0.30986135
     13      C    -3.30725550     0.06073921     1.00262851
     14      C    -2.14234121    -2.17367962     1.08736094
     15      H    -1.79575330    -1.96685327     2.10130859
     16      H    -3.70453809    -1.64945897    -1.14623036
     17      H    -2.00678396    -1.77893420    -1.63429059
     18      H    -2.82627822    -0.21119311    -1.69123109
     19      H    -4.29088891    -0.40981171     1.05497917
     20      H    -3.40108022     0.99981515     0.45521682
     21      H    -2.96821851     0.28502233     2.01578250
     22      H    -3.09398498    -2.70580014     1.14141374
     23      H    -1.41207336    -2.82101224     0.60042792
     24      H     1.48933029     0.92526067    -0.03030772
     25      B     3.94612578     0.30701841    -0.71580157
     26      F     3.83644875     0.87942442     0.46678225
     27      F     3.48452502     0.92888395    -1.78244757
     28      F     4.76184730    -0.71616684    -0.86537851
 
Total System Charge             0.00000
 
 *** GOStep2 ***

 Energy gradients wrt nuclear displacements
 ==========================================

     Atom      Cartesian (a.u./angstrom)
                 X         Y         Z
 ----------------------------------------
     1 H    -0.003337 -0.003613 -0.000803
     2 C     0.014311  0.018360  0.002083
     3 C    -0.046654  0.002564  0.009365
     4 C     0.069582  0.019937 -0.009212
     5 O     0.055195  0.067315 -0.001815
     6 H    -0.003346 -0.005860  0.001594
     7 H    -0.014900 -0.026651 -0.021539
     8 H    -0.042824 -0.001270 -0.036229
     9 H    -0.003109 -0.000419 -0.001451
    10 C    -0.038034 -0.020691 -0.038270
    11 C    -0.001697 -0.000666  0.005376
    12 C    -0.018282 -0.016038 -0.014605
    13 C     0.022376  0.003869  0.013103
    14 C     0.011288  0.016033  0.007991
    15 H     0.018415  0.028345  0.027188
    16 H     0.003520  0.000913  0.000122
    17 H     0.000528  0.001559  0.004413
    18 H     0.001521 -0.001751  0.005551
    19 H     0.004820 -0.000564  0.001278
    20 H     0.003997 -0.004981  0.001773
    21 H     0.047404  0.004566  0.040534
    22 H     0.002855  0.003448  0.001383
    23 H     0.003287  0.006931 -0.002052
    24 H    -0.002615 -0.037651 -0.005855
    25 B     0.070461  0.072829 -0.008155
    26 F    -0.045177 -0.074760 -0.070673
    27 F    -0.019340 -0.075731  0.074838
    28 F    -0.090246  0.023977  0.014066
 ----------------------------------------
 Mulliken charges used for AMS results%charges...
Hessian eigenvector     1(    -0.054) has overlap with TSRC:    0.62548E+00
Hessian eigenvector     1 has the largest overlap with TSRC:  0.62548
           Primitive Internal Coordinates (atoms in internal order)
-------------------------------------------------------------------------------
    index    type      i       j       k       l   value(A,deg)     Max Ovl Vect
-------------------------------------------------------------------------------
       1     bnd       1       3       0       0     1.08925876    -0.00022710
       2     bnd       2       6       0       0     1.08478816     0.00071075
       3     bnd       2      12       0       0     1.53983239    -0.00350519
       4     bnd       2       3       0       0     1.35675135     0.00236860
       5     bnd       3       4       0       0     1.46615313    -0.00604500
       6     bnd       4      24       0       0     1.07288002     0.00439594
       7     bnd       4       5       0       0     1.22769986     0.00331775
       8     bnd       5      25       0       0     1.71319491    -0.02258904
       9     bnd       8      10       0       0     1.08507047     0.00187912
      10     bnd       7      10       0       0     1.08383025     0.00139084
      11     bnd       9      10       0       0     1.08275309     0.00003175
      12     bnd      11      17       0       0     1.09075964     0.00044294
      13     bnd      11      12       0       0     1.53291286     0.00180418
      14     bnd      12      14       0       0     1.53269641    -0.00299610
      15     bnd      12      13       0       0     1.53223493    -0.00384101
      16     bnd      13      19       0       0     1.09164713     0.00018141
      17     bnd      13      21       0       0     1.09166388    -0.00906517
      18     bnd      14      22       0       0     1.09165003     0.00020291
      19     bnd      14      15       0       0     1.09132496    -0.00890401
      20     bnd      11      16       0       0     1.09158775     0.00029234
      21     bnd      11      18       0       0     1.09092561     0.00049650
      22     bnd      13      20       0       0     1.09102074     0.00051611
      23     bnd      14      23       0       0     1.09061195     0.00045065
      24     bnd      25      27       0       0     1.31815238     0.00213479
      25     bnd      25      26       0       0     1.31840138     0.00174757
      26     bnd      25      28       0       0     1.31707362     0.00236200
      27     bnd       7      15       0       0     1.37436150     0.02356890
      28     bnd       8      21       0       0     1.23654085     0.02768046
      29     ang       6       2      12       0   117.11365315    -0.00467548
      30     ang       6       2       3       0   120.38112219    -0.00702965
      31     ang      12       2       3       0   121.58899679     0.01088632
      32     ang       1       3       2       0   120.42333884     0.00479526
      33     ang       1       3       4       0   115.83506053     0.00251823
      34     ang       2       3       4       0   123.73976456    -0.00729536
      35     ang       3       4      24       0   114.58592927     0.00742021
      36     ang       3       4       5       0   125.97939358    -0.00813886
      37     ang      24       4       5       0   119.43453813     0.00072451
      38     ang       4       5      25       0   118.00843361    -0.00976534
      39     ang      10       7      15       0   120.02506888     0.02956810
      40     ang      10       8      21       0   123.57489081     0.02886307
      41     ang       8      10       7       0   118.40216942    -0.01904672
      42     ang       8      10       9       0   119.18720981    -0.00019155
      43     ang       7      10       9       0   119.25607336    -0.00147419
      44     ang      17      11      12       0   110.40875139     0.00308717
      45     ang      17      11      16       0   108.51044045    -0.00111045
      46     ang      17      11      18       0   108.43919498    -0.00079177
      47     ang      12      11      16       0   110.52539658    -0.00212861
      48     ang      12      11      18       0   110.40227463     0.00275388
      49     ang      16      11      18       0   108.48918325    -0.00192426
      50     ang       2      12      11       0   108.81870395     0.04975266
      51     ang       2      12      14       0   108.49941855    -0.01869864
      52     ang       2      12      13       0   107.95294094    -0.04281906
      53     ang      11      12      14       0   110.44389947    -0.00451391
      54     ang      11      12      13       0   110.35432331    -0.01155518
      55     ang      14      12      13       0   110.69600352     0.02736643
      56     ang      12      13      19       0   110.78168081     0.01892605
      57     ang      12      13      21       0   109.81926812    -0.04174461
      58     ang      12      13      20       0   110.37551307     0.00076195
      59     ang      19      13      21       0   108.89843778     0.03950176
      60     ang      19      13      20       0   108.51716590     0.00353561
      61     ang      21      13      20       0   108.39273452    -0.02041266
      62     ang      12      14      22       0   110.66842106     0.01380637
      63     ang      12      14      15       0   109.97793343    -0.03363716
      64     ang      12      14      23       0   110.48487564     0.00371107
      65     ang      22      14      15       0   108.85835641     0.03583177
      66     ang      22      14      23       0   108.45147559     0.00028744
      67     ang      15      14      23       0   108.34008170    -0.01960180
      68     ang      14      15       7       0   150.08852311    -0.12668322
      69     ang      13      21       8       0   151.19762692    -0.12580556
      70     ang       5      25      27       0    94.34527222    -0.01383904
      71     ang       5      25      26       0    94.78094570    -0.02487643
      72     ang       5      25      28       0    93.93992846    -0.00974231
      73     ang      27      25      26       0   119.46407757    -0.00364868
      74     ang      27      25      28       0   119.43848848     0.00145139
      75     ang      26      25      28       0   119.38522089     0.00219729
      76     dih       6       2      12      11    97.71425872    -0.00848758
      77     dih       6       2      12      14   217.92268350     0.00400362
      78     dih       6       2      12      13   -22.06742701     0.00139670
      79     dih       3       2      12      11   -71.36543649    -0.00285415
      80     dih       3       2      12      14    48.84298828     0.00963705
      81     dih       3       2      12      13   168.85287778     0.00703012
      82     dih       6       2       3       1   185.32633090    -0.00695099
      83     dih       6       2       3       4     5.84022743    -0.00936881
      84     dih      12       2       3       1    -5.94559703    -0.01242779
      85     dih      12       2       3       4   174.56829950    -0.01484562
      86     dih       1       3       4      24   180.37905142     0.00091427
      87     dih       1       3       4       5     0.51636298    -0.00181264
      88     dih       2       3       4      24    -0.11329369     0.00324814
      89     dih       2       3       4       5   180.02401788     0.00052124
      90     dih       3       4       5      25   177.27979595     0.01253788
      91     dih      24       4       5      25    -2.57683496     0.00968177
      92     dih       4       5      25      27   -67.27280298     0.01381137
      93     dih       4       5      25      26    52.81809325     0.01016269
      94     dih       4       5      25      28   172.77305370     0.01235998
      95     dih      21       8      10       7   -63.93663730    -0.01737840
      96     dih      21       8      10       9   136.27105671     0.04558489
      97     dih      15       7      10       8    63.29114860     0.01679983
      98     dih      15       7      10       9   223.06927046    -0.04597926
      99     dih      17      11      12       2    60.21524948     0.01497145
     100     dih      17      11      12      14   -58.78306043     0.01009047
     101     dih      17      11      12      13   178.49396548    -0.01361819
     102     dih      16      11      12       2   180.28157219     0.01421346
     103     dih      16      11      12      14    61.28326228     0.00933247
     104     dih      16      11      12      13   -61.43971181    -0.01437619
     105     dih      18      11      12       2   -59.68283336     0.01222417
     106     dih      18      11      12      14   181.31885673     0.00734318
     107     dih      18      11      12      13    58.59588264    -0.01636548
     108     dih       2      12      14      22   179.08503075    -0.11550502
     109     dih       2      12      14      15    58.77206264    -0.14732102
     110     dih       2      12      14      23   -60.78003069    -0.10383877
     111     dih      11      12      14      22   -61.72291011    -0.06896918
     112     dih      11      12      14      15   177.96412179    -0.10078518
     113     dih      11      12      14      23    58.41202845    -0.05730292
     114     dih      13      12      14      22    60.80021775    -0.06800399
     115     dih      13      12      14      15   -59.51275036    -0.09981999
     116     dih      13      12      14      23   180.93515631    -0.05633774
     117     dih       2      12      13      19   180.55421907     0.09569625
     118     dih       2      12      13      21   -59.11343542     0.13013997
     119     dih       2      12      13      20    60.33488623     0.07858658
     120     dih      11      12      13      19    61.74645556     0.06795297
     121     dih      11      12      13      21   182.07880107     0.10239669
     122     dih      11      12      13      20   -58.47287729     0.05084331
     123     dih      14      12      13      19   -60.82886188     0.06287329
     124     dih      14      12      13      21    59.50348363     0.09731701
     125     dih      14      12      13      20   178.95180528     0.04576362
     126     dih      12      13      21       8    31.26499883     0.00785164
     127     dih      19      13      21       8   152.73276361     0.03055029
     128     dih      20      13      21       8   -89.38923410     0.04534862
     129     dih      12      14      15       7   -24.10053805    -0.03146069
     130     dih      22      14      15       7   214.49792623    -0.05052036
     131     dih      23      14      15       7    96.75021666    -0.05986039
     132     dih      10       7      15      14    28.33074783     0.05577823
     133     dih      10       8      21      13   -35.54817570    -0.03026567
     134     bnd       2      10       0       0     2.55551535    -0.88353920
 
----------------------------------------------------------------------
Geometry Convergence after Step   2       (Hartree/Angstrom,Angstrom)
----------------------------------------------------------------------
current energy                               -5.42533320 Hartree
energy change                      -0.03203742     0.00028000    F
constrained gradient max            0.09024418     0.00100000    F
constrained gradient rms            0.03022290     0.00066667    F
gradient max                        0.09024418
gradient rms                        0.03022290
cart. step max                      0.10197109     0.01000000    F
cart. step rms                      0.03167149     0.00666667    F
 
 
--------
Geometry
--------
Formula: C8H15BF3O
Atoms
  Index Symbol   x (angstrom)   y (angstrom)   z (angstrom)
      1      H     0.21560156    -1.89332641    -0.23128689
      2      C    -0.94860892    -0.18057608     0.28329273
      3      C     0.20194624    -0.81893022    -0.05640600
      4      C     1.47938016    -0.12910973    -0.19979933
      5      O     2.54552439    -0.66887675    -0.50508095
      6      H    -0.95456812     0.90191738     0.36938265
      7      H    -1.09737379    -1.14589439     2.97088971
      8      H    -1.97289366     0.48378431     2.81233050
      9      H    -0.09990239     0.44477756     2.97287368
     10      C    -1.03807171    -0.07308997     2.81480630
     11      C    -2.76787737    -1.15793192    -1.13916555
     12      C    -2.31924177    -0.87949241     0.30320720
     13      C    -3.30658570     0.07349718     0.98918050
     14      C    -2.19181827    -2.19337211     1.08684147
     15      H    -1.81382835    -1.98139660     2.09071204
     16      H    -3.74693392    -1.64205109    -1.14592020
     17      H    -2.05611861    -1.81275407    -1.64475711
     18      H    -2.84052576    -0.22794521    -1.70649547
     19      H    -4.30076361    -0.37287508     1.06334076
     20      H    -3.38859639     1.00761632     0.42947549
     21      H    -2.93526647     0.30693955     1.99198439
     22      H    -3.15822886    -2.69694665     1.16199698
     23      H    -1.49112150    -2.87126517     0.59725933
     24      H     1.45289820     0.93514101    -0.01618925
     25      B     3.93364460     0.32688736    -0.68394798
     26      F     3.84054772     0.92953316     0.49917154
     27      F     3.51461287     0.97947554    -1.76519668
     28      F     4.80332528    -0.66579676    -0.83102383
 
Total System Charge             0.00000
 
 *** GOStep3 ***

 Energy gradients wrt nuclear displacements
 ==========================================

     Atom      Cartesian (a.u./angstrom)
                 X         Y         Z
 ----------------------------------------
     1 H    -0.002421 -0.002472 -0.000884
     2 C     0.014143  0.014065  0.000561
     3 C    -0.039529  0.001245  0.008591
     4 C     0.055476  0.017230 -0.007232
     5 O     0.037541  0.048017  0.000614
     6 H    -0.002965 -0.004697  0.002576
     7 H    -0.016974 -0.025515 -0.018625
     8 H    -0.042176 -0.001072 -0.030774
     9 H    -0.001412  0.000163 -0.001578
    10 C    -0.026239 -0.014702 -0.027883
    11 C    -0.002989 -0.001103  0.005213
    12 C    -0.016580 -0.013910 -0.011067
    13 C     0.016260  0.003533  0.006990
    14 C     0.008310  0.010456  0.004594
    15 H     0.020099  0.027107  0.023882
    16 H     0.002753  0.000612 -0.000219
    17 H     0.000373  0.001381  0.003407
    18 H     0.001172 -0.001305  0.004201
    19 H     0.002912 -0.000461  0.000017
    20 H     0.003123 -0.003476  0.001457
    21 H     0.046175  0.003698  0.035070
    22 H     0.001990  0.001909  0.000259
    23 H     0.002273  0.005231 -0.000775
    24 H    -0.002540 -0.027058 -0.003604
    25 B     0.056813  0.059409 -0.005630
    26 F    -0.034712 -0.056690 -0.051187
    27 F    -0.016086 -0.055551  0.052828
    28 F    -0.064788  0.013955  0.009196
 ----------------------------------------
 Mulliken charges used for AMS results%charges...
Hessian eigenvector     1(    -0.044) has overlap with TSRC:    0.64599E+00
Hessian eigenvector     1 has the largest overlap with TSRC:  0.64599
           Primitive Internal Coordinates (atoms in internal order)
-------------------------------------------------------------------------------
    index    type      i       j       k       l   value(A,deg)     Max Ovl Vect
-------------------------------------------------------------------------------
       1     bnd       1       3       0       0     1.08862159    -0.00001741
       2     bnd       2       6       0       0     1.08592775     0.00082073
       3     bnd       2      12       0       0     1.53867314    -0.00498151
       4     bnd       2       3       0       0     1.35892178     0.00382605
       5     bnd       3       4       0       0     1.45885276    -0.00827986
       6     bnd       4      24       0       0     1.08029792     0.00271893
       7     bnd       4       5       0       0     1.23337294     0.00237202
       8     bnd       5      25       0       0     1.71767788    -0.01796893
       9     bnd       8      10       0       0     1.08812093    -0.00289912
      10     bnd       7      10       0       0     1.08572008    -0.00156483
      11     bnd       9      10       0       0     1.08320532    -0.00078851
      12     bnd      11      17       0       0     1.09133653     0.00058533
      13     bnd      11      12       0       0     1.53598229     0.00200380
      14     bnd      12      14       0       0     1.53512192    -0.00152602
      15     bnd      12      13       0       0     1.53414359    -0.00076742
      16     bnd      13      19       0       0     1.09230841    -0.00031584
      17     bnd      13      21       0       0     1.09452682    -0.01252863
      18     bnd      14      22       0       0     1.09233013    -0.00019407
      19     bnd      14      15       0       0     1.09341946    -0.01065841
      20     bnd      11      16       0       0     1.09223108     0.00035995
      21     bnd      11      18       0       0     1.09179499     0.00046851
      22     bnd      13      20       0       0     1.09205037     0.00030759
      23     bnd      14      23       0       0     1.09096546     0.00099921
      24     bnd      25      27       0       0     1.33062304     0.00214963
      25     bnd      25      26       0       0     1.33102246     0.00335075
      26     bnd      25      28       0       0     1.32792981     0.00098848
      27     bnd       7      15       0       0     1.40928485     0.00914059
      28     bnd       8      21       0       0     1.27687244     0.01434063
      29     ang       6       2      12       0   116.54382432     0.00223030
      30     ang       6       2       3       0   119.52008742    -0.00155362
      31     ang      12       2       3       0   122.96053627    -0.00063476
      32     ang       1       3       2       0   120.95667206     0.00178982
      33     ang       1       3       4       0   116.09741299     0.00098755
      34     ang       2       3       4       0   122.94454131    -0.00277564
      35     ang       3       4      24       0   115.31891861     0.00503256
      36     ang       3       4       5       0   125.05133862    -0.00329152
      37     ang      24       4       5       0   119.62970955    -0.00175363
      38     ang       4       5      25       0   118.07560536    -0.00544398
      39     ang      10       7      15       0   121.58644144    -0.01384260
      40     ang      10       8      21       0   125.31654399    -0.02034966
      41     ang       8      10       7       0   117.32841440    -0.02300747
      42     ang       8      10       9       0   119.98295528    -0.00842196
      43     ang       7      10       9       0   119.91595617    -0.00870315
      44     ang      17      11      12       0   110.69046304     0.00140226
      45     ang      17      11      16       0   108.40881469    -0.00010287
      46     ang      17      11      18       0   108.28581189    -0.00070633
      47     ang      12      11      16       0   110.36353712    -0.00171173
      48     ang      12      11      18       0   110.67003032     0.00136347
      49     ang      16      11      18       0   108.34209797    -0.00027629
      50     ang       2      12      11       0   109.29145078     0.04055797
      51     ang       2      12      14       0   108.74975505    -0.02659540
      52     ang       2      12      13       0   107.27254395    -0.02451161
      53     ang      11      12      14       0   110.39269924    -0.01075526
      54     ang      11      12      13       0   110.15220188    -0.01208093
      55     ang      14      12      13       0   110.90571764     0.03296585
      56     ang      12      13      19       0   111.23976357     0.01213872
      57     ang      12      13      21       0   108.89406551    -0.02549637
      58     ang      12      13      20       0   110.51868426    -0.00029636
      59     ang      19      13      21       0   109.49516866     0.03157636
      60     ang      19      13      20       0   108.42104643     0.00229940
      61     ang      21      13      20       0   108.21697163    -0.01989831
      62     ang      12      14      22       0   110.87029372     0.00940020
      63     ang      12      14      15       0   109.35580847    -0.02114514
      64     ang      12      14      23       0   110.85787413    -0.00045545
      65     ang      22      14      15       0   109.39326473     0.03154560
      66     ang      22      14      23       0   108.21913786     0.00202094
      67     ang      15      14      23       0   108.08569671    -0.02108604
      68     ang      14      15       7       0   149.77841494    -0.14113123
      69     ang      13      21       8       0   150.90995108    -0.14369717
      70     ang       5      25      27       0    96.57120662    -0.01468797
      71     ang       5      25      26       0    96.51083240    -0.01014159
      72     ang       5      25      28       0    96.16734051    -0.01417017
      73     ang      27      25      26       0   118.56870033    -0.00188807
      74     ang      27      25      28       0   118.87277087     0.00130504
      75     ang      26      25      28       0   118.86320316     0.00058303
      76     dih       6       2      12      11    97.20569382     0.00013004
      77     dih       6       2      12      14   217.78221644    -0.00473809
      78     dih       6       2      12      13   -22.20629508     0.00538891
      79     dih       3       2      12      11   -71.41921134     0.00004642
      80     dih       3       2      12      14    49.15731128    -0.00482171
      81     dih       3       2      12      13   169.16879976     0.00530529
      82     dih       6       2       3       1   185.19889946    -0.00130063
      83     dih       6       2       3       4     5.64209795    -0.00153596
      84     dih      12       2       3       1    -6.49972712    -0.00079940
      85     dih      12       2       3       4   173.94347136    -0.00103474
      86     dih       1       3       4      24   180.44372508    -0.00268647
      87     dih       1       3       4       5     0.37686569     0.00316823
      88     dih       2       3       4      24     0.02050977    -0.00245554
      89     dih       2       3       4       5   179.95365039     0.00339915
      90     dih       3       4       5      25   177.65834254     0.00032760
      91     dih      24       4       5      25    -2.41118609     0.00643405
      92     dih       4       5      25      27   -67.20652512     0.01504743
      93     dih       4       5      25      26    52.63787381     0.01315937
      94     dih       4       5      25      28   172.70499878     0.01374240
      95     dih      21       8      10       7   -61.03476942    -0.13495174
      96     dih      21       8      10       9   137.83229912    -0.01173672
      97     dih      15       7      10       8    60.27526213     0.14242823
      98     dih      15       7      10       9   221.42138068     0.01911589
      99     dih      17      11      12       2    60.77242568     0.00006968
     100     dih      17      11      12      14   -58.79530360     0.01404191
     101     dih      17      11      12      13   178.38877249    -0.01214107
     102     dih      16      11      12       2   180.78923045    -0.00025401
     103     dih      16      11      12      14    61.22150117     0.01371821
     104     dih      16      11      12      13   -61.59442274    -0.01246477
     105     dih      18      11      12       2   -59.29049460    -0.00081919
     106     dih      18      11      12      14   181.14177612     0.01315303
     107     dih      18      11      12      13    58.32585220    -0.01302995
     108     dih       2      12      14      22   177.39160734    -0.06710420
     109     dih       2      12      14      15    56.68842442    -0.09882451
     110     dih       2      12      14      23   -62.38697727    -0.05881595
     111     dih      11      12      14      22   -62.71368809    -0.04021139
     112     dih      11      12      14      15   176.58312899    -0.07193171
     113     dih      11      12      14      23    57.50772730    -0.03192315
     114     dih      13      12      14      22    59.66094684    -0.04035108
     115     dih      13      12      14      15   -61.04223608    -0.07207140
     116     dih      13      12      14      23   179.88236223    -0.03206284
     117     dih       2      12      13      19   181.58406347     0.06644804
     118     dih       2      12      13      21   -57.65434275     0.09715362
     119     dih       2      12      13      20    61.08956030     0.05594332
     120     dih      11      12      13      19    62.72565933     0.03906182
     121     dih      11      12      13      21   183.48725311     0.06976740
     122     dih      11      12      13      20   -57.76884383     0.02855711
     123     dih      14      12      13      19   -59.78871134     0.03842686
     124     dih      14      12      13      21    60.97288244     0.06913244
     125     dih      14      12      13      20   179.71678549     0.02792215
     126     dih      12      13      21       8    30.89221989     0.02297192
     127     dih      19      13      21       8   152.71935060     0.04229383
     128     dih      20      13      21       8   -89.28421817     0.05150509
     129     dih      12      14      15       7   -24.31103219    -0.03510883
     130     dih      22      14      15       7   214.08999633    -0.05372388
     131     dih      23      14      15       7    96.46725168    -0.06192612
     132     dih      10       7      15      14    29.24024132     0.01483820
     133     dih      10       8      21      13   -36.04023783    -0.00489259
     134     bnd       2      10       0       0     2.53537331    -0.91072582
 
----------------------------------------------------------------------
Geometry Convergence after Step   3       (Hartree/Angstrom,Angstrom)
----------------------------------------------------------------------
current energy                               -5.44476296 Hartree
energy change                      -0.01942976     0.00028000    F
constrained gradient max            0.06478882     0.00100000    F
constrained gradient rms            0.02352144     0.00066667    F
gradient max                        0.06478882
gradient rms                        0.02352144
cart. step max                      0.06589670     0.01000000    F
cart. step rms                      0.02043083     0.00666667    F
 
 
--------
Geometry
--------
Formula: C8H15BF3O
Atoms
  Index Symbol   x (angstrom)   y (angstrom)   z (angstrom)
      1      H     0.23142498    -1.91281026    -0.20524718
      2      C    -0.95506860    -0.20341792     0.29915948
      3      C     0.20236943    -0.83804346    -0.03733570
      4      C     1.45932092    -0.13028854    -0.18406917
      5      O     2.53152906    -0.66927309    -0.48803714
      6      H    -0.95580521     0.88122316     0.37230660
      7      H    -1.05492836    -1.13439319     2.95145709
      8      H    -1.91396518     0.49559775     2.80011950
      9      H    -0.03400569     0.44631379     2.93878515
     10      C    -0.97864801    -0.06236516     2.79111714
     11      C    -2.76945118    -1.15596082    -1.14404632
     12      C    -2.33103623    -0.88699123     0.30652362
     13      C    -3.32100567     0.07304281     0.98546066
     14      C    -2.22679840    -2.20822574     1.08547780
     15      H    -1.83185954    -2.00165896     2.08471306
     16      H    -3.75459901    -1.62890038    -1.15775836
     17      H    -2.06337918    -1.81840686    -1.64914072
     18      H    -2.82940209    -0.22493980    -1.71272176
     19      H    -4.31741063    -0.36795850     1.06515589
     20      H    -3.40167619     1.00514615     0.42062332
     21      H    -2.94071096     0.31416036     1.98413681
     22      H    -3.20250063    -2.69327590     1.16692406
     23      H    -1.54356851    -2.90198806     0.59171929
     24      H     1.42720598     0.94147142    -0.01040926
     25      B     3.91898299     0.32963382    -0.67100624
     26      F     3.86368268     0.96791051     0.50886149
     27      F     3.52790301     1.00565346    -1.76117560
     28      F     4.82255607    -0.64331663    -0.82011744
 
Total System Charge             0.00000
 
 *** GOStep4 ***

 Energy gradients wrt nuclear displacements
 ==========================================

     Atom      Cartesian (a.u./angstrom)
                 X         Y         Z
 ----------------------------------------
     1 H    -0.001784 -0.002009 -0.000850
     2 C     0.014653  0.009220 -0.003394
     3 C    -0.032029  0.000405  0.007344
     4 C     0.043205  0.012855 -0.005753
     5 O     0.023126  0.033061  0.000220
     6 H    -0.002317 -0.003481  0.003634
     7 H    -0.018089 -0.023551 -0.015931
     8 H    -0.039828 -0.002126 -0.025617
     9 H    -0.000694  0.000222 -0.001919
    10 C    -0.017571 -0.009525 -0.019131
    11 C    -0.002449 -0.000980  0.004793
    12 C    -0.013339 -0.010340 -0.008049
    13 C     0.009638  0.002783  0.004771
    14 C     0.005565  0.006986  0.003553
    15 H     0.020279  0.025297  0.019829
    16 H     0.002123  0.000365 -0.000051
    17 H     0.000422  0.000965  0.002251
    18 H     0.000847 -0.000940  0.002924
    19 H     0.001578 -0.000013 -0.000418
    20 H     0.002508 -0.002416  0.001234
    21 H     0.043241  0.003430  0.029242
    22 H     0.001339  0.000957 -0.000451
    23 H     0.002214  0.003887 -0.000388
    24 H    -0.002254 -0.018831 -0.002260
    25 B     0.044055  0.045536 -0.004974
    26 F    -0.025035 -0.040427 -0.035139
    27 F    -0.012382 -0.040446  0.037927
    28 F    -0.047022  0.009119  0.006606
 ----------------------------------------
 Mulliken charges used for AMS results%charges...
Hessian eigenvector     1(    -0.036) has overlap with TSRC:    0.64373E+00
Hessian eigenvector     1 has the largest overlap with TSRC:  0.64373
           Primitive Internal Coordinates (atoms in internal order)
-------------------------------------------------------------------------------
    index    type      i       j       k       l   value(A,deg)     Max Ovl Vect
-------------------------------------------------------------------------------
       1     bnd       1       3       0       0     1.08819216    -0.00032241
       2     bnd       2       6       0       0     1.08710502     0.00040237
       3     bnd       2      12       0       0     1.53642885    -0.00470647
       4     bnd       2       3       0       0     1.36221928     0.00559729
       5     bnd       3       4       0       0     1.44995682    -0.00566928
       6     bnd       4      24       0       0     1.08621293     0.00047577
       7     bnd       4       5       0       0     1.23795444     0.00371671
       8     bnd       5      25       0       0     1.71939556    -0.01618169
       9     bnd       8      10       0       0     1.08913813    -0.00433319
      10     bnd       7      10       0       0     1.08663319    -0.00352760
      11     bnd       9      10       0       0     1.08300934    -0.00064980
      12     bnd      11      17       0       0     1.09201318    -0.00000376
      13     bnd      11      12       0       0     1.53905992     0.00198463
      14     bnd      12      14       0       0     1.53730147    -0.00041573
      15     bnd      12      13       0       0     1.53709478    -0.00259832
      16     bnd      13      19       0       0     1.09254580    -0.00056396
      17     bnd      13      21       0       0     1.09549797    -0.01372735
      18     bnd      14      22       0       0     1.09265821    -0.00041286
      19     bnd      14      15       0       0     1.09412871    -0.01124756
      20     bnd      11      16       0       0     1.09287516     0.00028940
      21     bnd      11      18       0       0     1.09260514     0.00013331
      22     bnd      13      20       0       0     1.09287034     0.00019727
      23     bnd      14      23       0       0     1.09174480     0.00027881
      24     bnd      25      27       0       0     1.34105009     0.00162688
      25     bnd      25      26       0       0     1.34258822     0.00064874
      26     bnd      25      28       0       0     1.33615533     0.00084480
      27     bnd       7      15       0       0     1.45155682    -0.00559625
      28     bnd       8      21       0       0     1.32399175     0.00344835
      29     ang       6       2      12       0   116.29370904     0.00327475
      30     ang       6       2       3       0   118.81722064     0.00115785
      31     ang      12       2       3       0   123.69996293     0.00038067
      32     ang       1       3       2       0   121.39474411    -0.00105130
      33     ang       1       3       4       0   116.31701808    -0.00118235
      34     ang       2       3       4       0   122.28724389     0.00222224
      35     ang       3       4      24       0   116.09219595     0.00066033
      36     ang       3       4       5       0   124.27406405     0.00208406
      37     ang      24       4       5       0   119.63373082    -0.00274324
      38     ang       4       5      25       0   118.17009233    -0.00348350
      39     ang      10       7      15       0   122.60929929    -0.03544890
      40     ang      10       8      21       0   126.20456086    -0.03579885
      41     ang       8      10       7       0   116.35348492    -0.02034361
      42     ang       8      10       9       0   120.48430689    -0.01172562
      43     ang       7      10       9       0   120.29737471    -0.01113389
      44     ang      17      11      12       0   110.96350554    -0.00091886
      45     ang      17      11      16       0   108.33202117     0.00054892
      46     ang      17      11      18       0   108.15890959    -0.00034614
      47     ang      12      11      16       0   110.13498724     0.00098042
      48     ang      12      11      18       0   110.93229389    -0.00080172
      49     ang      16      11      18       0   108.22552245     0.00055687
      50     ang       2      12      11       0   109.16835475     0.04796096
      51     ang       2      12      14       0   108.91002443    -0.02497381
      52     ang       2      12      13       0   107.51918638    -0.03832470
      53     ang      11      12      14       0   110.28465350    -0.01197476
      54     ang      11      12      13       0   109.99839360    -0.01301427
      55     ang      14      12      13       0   110.89474302     0.03971686
      56     ang      12      13      19       0   111.56087292     0.00814455
      57     ang      12      13      21       0   108.45461146    -0.01988340
      58     ang      12      13      20       0   110.60669557    -0.00114736
      59     ang      19      13      21       0   109.81230035     0.03054280
      60     ang      19      13      20       0   108.33956510     0.00273468
      61     ang      21      13      20       0   108.00276915    -0.02008290
      62     ang      12      14      22       0   111.02324019     0.00650403
      63     ang      12      14      15       0   108.96381159    -0.01205299
      64     ang      12      14      23       0   111.06445495    -0.00154684
      65     ang      22      14      15       0   109.75873966     0.02904544
      66     ang      22      14      23       0   108.08620881     0.00173047
      67     ang      15      14      23       0   107.88562374    -0.02356206
      68     ang      14      15       7       0   148.35635050    -0.13606120
      69     ang      13      21       8       0   149.45202501    -0.14259402
      70     ang       5      25      27       0    98.28208703    -0.01310861
      71     ang       5      25      26       0    98.59446852    -0.02285323
      72     ang       5      25      28       0    97.73132606    -0.01145841
      73     ang      27      25      26       0   117.56362681    -0.00056141
      74     ang      27      25      28       0   118.26553983     0.00034124
      75     ang      26      25      28       0   118.17097911     0.00022017
      76     dih       6       2      12      11    96.24666889     0.01746779
      77     dih       6       2      12      14   216.71466839     0.01634059
      78     dih       6       2      12      13   -23.05513794     0.02754610
      79     dih       3       2      12      11   -71.11272534    -0.01084592
      80     dih       3       2      12      14    49.35527416    -0.01197312
      81     dih       3       2      12      13   169.58546784    -0.00076761
      82     dih       6       2       3       1   185.27182787    -0.00122377
      83     dih       6       2       3       4     5.64795768     0.00029376
      84     dih      12       2       3       1    -7.66774738     0.02826712
      85     dih      12       2       3       4   172.70838243     0.02978465
      86     dih       1       3       4      24   180.31809762     0.00271551
      87     dih       1       3       4       5     0.35319706     0.00218546
      88     dih       2       3       4      24    -0.04009053     0.00125931
      89     dih       2       3       4       5   179.99500891     0.00072927
      90     dih       3       4       5      25   177.98415916    -0.00801713
      91     dih      24       4       5      25    -1.97957506    -0.00857567
      92     dih       4       5      25      27   -67.02894577     0.01015655
      93     dih       4       5      25      26    52.63558776     0.00959514
      94     dih       4       5      25      28   172.79215380     0.00981531
      95     dih      21       8      10       7   -60.05747740    -0.17128807
      96     dih      21       8      10       9   139.04531180    -0.03827858
      97     dih      15       7      10       8    59.08038807     0.19211509
      98     dih      15       7      10       9   220.01552784     0.05881603
      99     dih      17      11      12       2    60.90889034     0.00344414
     100     dih      17      11      12      14   -58.71293083     0.01165044
     101     dih      17      11      12      13   178.66153134    -0.02161849
     102     dih      16      11      12       2   180.85693896     0.00416594
     103     dih      16      11      12      14    61.23511779     0.01237224
     104     dih      16      11      12      13   -61.39042004    -0.02089669
     105     dih      18      11      12       2   -59.34807200     0.00497354
     106     dih      18      11      12      14   181.03010683     0.01317984
     107     dih      18      11      12      13    58.40456900    -0.02008909
     108     dih       2      12      14      22   176.38600692    -0.05368363
     109     dih       2      12      14      15    55.38741944    -0.08630760
     110     dih       2      12      14      23   -63.32055380    -0.04833253
     111     dih      11      12      14      22   -63.83587854    -0.01750673
     112     dih      11      12      14      15   175.16553398    -0.05013070
     113     dih      11      12      14      23    56.45756074    -0.01215563
     114     dih      13      12      14      22    58.26229487    -0.01505075
     115     dih      13      12      14      15   -62.73629261    -0.04767472
     116     dih      13      12      14      23   178.55573415    -0.00969965
     117     dih       2      12      13      19   182.46685344     0.04862051
     118     dih       2      12      13      21   -56.46470550     0.07909742
     119     dih       2      12      13      20    61.80152552     0.04069977
     120     dih      11      12      13      19    63.69698837     0.02117549
     121     dih      11      12      13      21   184.76542943     0.05165240
     122     dih      11      12      13      20   -56.96833954     0.01325475
     123     dih      14      12      13      19   -58.56802786     0.01811209
     124     dih      14      12      13      21    62.50041320     0.04858899
     125     dih      14      12      13      20   180.76664422     0.01019134
     126     dih      12      13      21       8    30.76810732     0.02818515
     127     dih      19      13      21       8   152.90963297     0.04539355
     128     dih      20      13      21       8   -89.13798826     0.05444734
     129     dih      12      14      15       7   -24.55064841    -0.04034427
     130     dih      22      14      15       7   213.68021202    -0.05941317
     131     dih      23      14      15       7    96.12893423    -0.06450540
     132     dih      10       7      15      14    30.20093057    -0.01237105
     133     dih      10       8      21      13   -36.22106268    -0.00299764
     134     bnd       2      10       0       0     2.49605787    -0.90554376
 
----------------------------------------------------------------------
Geometry Convergence after Step   4       (Hartree/Angstrom,Angstrom)
----------------------------------------------------------------------
current energy                               -5.45820506 Hartree
energy change                      -0.01344210     0.00028000    F
constrained gradient max            0.04702297     0.00100000    F
constrained gradient rms            0.01811898     0.00066667    F
gradient max                        0.04702297
gradient rms                        0.01811898
cart. step max                      0.06525519     0.01000000    F
cart. step rms                      0.02019429     0.00666667    F
 
 
--------
Geometry
--------
Formula: C8H15BF3O
Atoms
  Index Symbol   x (angstrom)   y (angstrom)   z (angstrom)
      1      H     0.24622711    -1.92567272    -0.17244108
      2      C    -0.96279001    -0.21939180     0.31622062
      3      C     0.20333128    -0.85023065    -0.01529061
      4      C     1.44301182    -0.12937931    -0.16851862
      5      O     2.52261024    -0.66689622    -0.46775176
      6      H    -0.96203902     0.86733731     0.36942011
      7      H    -1.01550282    -1.12945493     2.93467733
      8      H    -1.85176569     0.50476939     2.78516754
      9      H     0.03124950     0.43465383     2.89210828
     10      C    -0.92167664    -0.06142368     2.75789276
     11      C    -2.76944117    -1.15435543    -1.14645159
     12      C    -2.34066591    -0.89381150     0.31161584
     13      C    -3.33138676     0.07419925     0.98254210
     14      C    -2.26175535    -2.22196486     1.08607543
     15      H    -1.85625145    -2.02723375     2.08347404
     16      H    -3.76010295    -1.61669035    -1.16787580
     17      H    -2.06800225    -1.82362183    -1.64985091
     18      H    -2.81673524    -0.22209270    -1.71540806
     19      H    -4.32964036    -0.36210124     1.06430370
     20      H    -3.40859801     1.00415174     0.41243935
     21      H    -2.94833216     0.32246145     1.97851269
     22      H    -3.24703651    -2.68713841     1.16917103
     23      H    -1.59539878    -2.93063825     0.58925758
     24      H     1.40634041     0.94815923    -0.00665081
     25      B     3.90584706     0.33544700    -0.66001455
     26      F     3.87008807     1.00551480     0.51295633
     27      F     3.53773486     1.02198163    -1.76203071
     28      F     4.83983655    -0.61863925    -0.80207420
 
Total System Charge             0.00000
 
 *** GOStep5 ***

 Energy gradients wrt nuclear displacements
 ==========================================

     Atom      Cartesian (a.u./angstrom)
                 X         Y         Z
 ----------------------------------------
     1 H    -0.001098 -0.001298 -0.000884
     2 C     0.012878  0.006331 -0.009290
     3 C    -0.026002  0.000553  0.007038
     4 C     0.031937  0.009439 -0.004433
     5 O     0.015216  0.023320  0.000729
     6 H    -0.001574 -0.002498  0.004590
     7 H    -0.018531 -0.020892 -0.013580
     8 H    -0.036730 -0.002916 -0.021319
     9 H    -0.000405  0.000082 -0.002307
    10 C    -0.011201 -0.006073 -0.010459
    11 C    -0.002077 -0.001101  0.004017
    12 C    -0.009841 -0.007874 -0.005718
    13 C     0.005722  0.002398  0.003571
    14 C     0.003091  0.004143  0.003494
    15 H     0.019877  0.022792  0.016184
    16 H     0.001512  0.000147 -0.000001
    17 H     0.000345  0.000738  0.001487
    18 H     0.000590 -0.000654  0.002035
    19 H     0.001053  0.000110 -0.000823
    20 H     0.002141 -0.001514  0.001082
    21 H     0.039885  0.003110  0.023780
    22 H     0.000993  0.000382 -0.000803
    23 H     0.001969  0.002886  0.000061
    24 H    -0.001794 -0.013229 -0.001151
    25 B     0.033908  0.034738 -0.004149
[...]
   10       1          1       0.17030108D-01
   10       1          2       0.95888233D-02
   10       1          3       0.15664125D-02
   10       1          4       0.14263795D-02
   10       1          5       0.63471981D-03
   10       1          6       0.59267054D-03
   10       1          7       0.14962135D-03
   10       1          8       0.48469708D-04
   10       1          9       0.20212992D-04
   10       1         10       0.72611620D-05
*** CPKS converged.
----------------------------------------------
   10       2          1       0.14618267D-01
   10       2          2       0.97712500D-02
   10       2          3       0.56757826D-02
   10       2          4       0.38229014D-02
   10       2          5       0.13774822D-02
   10       2          6       0.43325591D-03
   10       2          7       0.92236696D-04
   10       2          8       0.47394862D-04
   10       2          9       0.43425567D-04
   10       2         10       0.11627909D-04
   10       2         11       0.33925661D-05
*** CPKS converged.
----------------------------------------------
   10       3          1       0.36668014D-01
   10       3          2       0.24987554D-01
   10       3          3       0.13530976D-01
   10       3          4       0.54317450D-02
   10       3          5       0.16093239D-02
   10       3          6       0.55541104D-03
   10       3          7       0.36646136D-03
   10       3          8       0.17009841D-03
   10       3          9       0.53594496D-04
   10       3         10       0.19596054D-04
   10       3         11       0.76738480D-05
*** CPKS converged.
----------------------------------------------

====================  end of solving CPKS equations  ====================

==========================
###### NUCLEUS:    11  C  
==========================

====================  solving CPKS equations  ====================

NUCLEUS  COORD.    ITERATION   ACCURACY
-------  ------    ---------   --------
   11       1          1       0.12155479D-01
   11       1          2       0.68905534D-02
   11       1          3       0.20901305D-02
   11       1          4       0.13539323D-02
   11       1          5       0.44575245D-03
   11       1          6       0.29222436D-03
   11       1          7       0.15882848D-03
   11       1          8       0.84491261D-04
   11       1          9       0.91406726D-05
*** CPKS converged.
----------------------------------------------
   11       2          1       0.95327725D-02
   11       2          2       0.16578759D-02
   11       2          3       0.95891303D-03
   11       2          4       0.36237663D-03
   11       2          5       0.19672927D-03
   11       2          6       0.14310522D-03
   11       2          7       0.88460375D-04
   11       2          8       0.31102630D-04
   11       2          9       0.60978453D-05
*** CPKS converged.
----------------------------------------------
   11       3          1       0.35123274D-01
   11       3          2       0.96344807D-02
   11       3          3       0.44997023D-02
   11       3          4       0.64606230D-03
   11       3          5       0.41874266D-03
   11       3          6       0.34874593D-03
   11       3          7       0.16465598D-03
   11       3          8       0.87008377D-04
   11       3          9       0.16006917D-04
   11       3         10       0.67693939D-05
*** CPKS converged.
----------------------------------------------

====================  end of solving CPKS equations  ====================

==========================
###### NUCLEUS:    12  C  
==========================

====================  solving CPKS equations  ====================

NUCLEUS  COORD.    ITERATION   ACCURACY
-------  ------    ---------   --------
   12       1          1       0.36376887D-01
   12       1          2       0.13446167D-01
   12       1          3       0.18638549D-02
   12       1          4       0.73516285D-03
   12       1          5       0.48170919D-03
   12       1          6       0.30170071D-03
   12       1          7       0.16286534D-03
   12       1          8       0.72972102D-04
   12       1          9       0.86295976D-05
*** CPKS converged.
----------------------------------------------
   12       2          1       0.21894764D-01
   12       2          2       0.86237205D-02
   12       2          3       0.24166952D-02
   12       2          4       0.35494972D-03
   12       2          5       0.13160610D-03
   12       2          6       0.17761063D-03
   12       2          7       0.73935399D-04
   12       2          8       0.40402677D-04
   12       2          9       0.14968046D-04
   12       2         10       0.47592841D-05
*** CPKS converged.
----------------------------------------------
   12       3          1       0.22554248D-01
   12       3          2       0.60776996D-02
   12       3          3       0.49718153D-02
   12       3          4       0.14075382D-02
   12       3          5       0.15791225D-02
   12       3          6       0.42106014D-03
   12       3          7       0.19952842D-03
   12       3          8       0.42001492D-04
   12       3          9       0.37027095D-04
   12       3         10       0.11141554D-04
   12       3         11       0.30013244D-05
*** CPKS converged.
----------------------------------------------

====================  end of solving CPKS equations  ====================

==========================
###### NUCLEUS:    13  C  
==========================

====================  solving CPKS equations  ====================

NUCLEUS  COORD.    ITERATION   ACCURACY
-------  ------    ---------   --------
   13       1          1       0.28465757D-01
   13       1          2       0.10240967D-01
   13       1          3       0.29176485D-02
   13       1          4       0.58003594D-03
   13       1          5       0.24029993D-03
   13       1          6       0.23650208D-03
   13       1          7       0.74644875D-04
   13       1          8       0.54485400D-04
   13       1          9       0.23152565D-04
   13       1         10       0.64781697D-05
*** CPKS converged.
----------------------------------------------
   13       2          1       0.15467412D-01
   13       2          2       0.74331376D-02
   13       2          3       0.25523007D-02
   13       2          4       0.40343728D-03
   13       2          5       0.14752417D-03
   13       2          6       0.88558250D-04
   13       2          7       0.42769812D-04
   13       2          8       0.20773914D-04
   13       2          9       0.14752845D-04
   13       2         10       0.56642603D-05
*** CPKS converged.
----------------------------------------------
   13       3          1       0.17883456D-01
   13       3          2       0.58206899D-02
   13       3          3       0.43856430D-02
   13       3          4       0.31676364D-03
   13       3          5       0.33988877D-03
   13       3          6       0.10783599D-03
   13       3          7       0.43094857D-04
   13       3          8       0.26636001D-04
   13       3          9       0.16186229D-04
   13       3         10       0.58434428D-05
*** CPKS converged.
----------------------------------------------

====================  end of solving CPKS equations  ====================

==========================
###### NUCLEUS:    14  C  
==========================

====================  solving CPKS equations  ====================

NUCLEUS  COORD.    ITERATION   ACCURACY
-------  ------    ---------   --------
   14       1          1       0.88787077D-02
   14       1          2       0.39498980D-02
   14       1          3       0.11473490D-02
   14       1          4       0.37917420D-03
   14       1          5       0.32590131D-03
   14       1          6       0.78633941D-04
   14       1          7       0.12702873D-04
   14       1          8       0.60673434D-05
*** CPKS converged.
----------------------------------------------
   14       2          1       0.27383039D-01
   14       2          2       0.10210422D-01
   14       2          3       0.33151592D-02
   14       2          4       0.57574292D-03
   14       2          5       0.26483873D-03
   14       2          6       0.19060594D-03
   14       2          7       0.72654782D-04
   14       2          8       0.53582817D-04
   14       2          9       0.22464330D-04
   14       2         10       0.52192104D-05
*** CPKS converged.
----------------------------------------------
   14       3          1       0.11918312D-01
   14       3          2       0.53259341D-02
   14       3          3       0.12182319D-02
   14       3          4       0.71225628D-03
   14       3          5       0.28881849D-03
   14       3          6       0.66834963D-04
   14       3          7       0.38664847D-04
   14       3          8       0.27379160D-04
   14       3          9       0.15893031D-04
   14       3         10       0.51880947D-05
*** CPKS converged.
----------------------------------------------

====================  end of solving CPKS equations  ====================

==========================
###### NUCLEUS:     5  O  
==========================

====================  solving CPKS equations  ====================

NUCLEUS  COORD.    ITERATION   ACCURACY
-------  ------    ---------   --------
    5       1          1       0.24646747D-01
    5       1          2       0.19711055D-01
    5       1          3       0.37632617D-02
    5       1          4       0.31228540D-02
    5       1          5       0.21817638D-02
    5       1          6       0.51383881D-03
    5       1          7       0.94000226D-04
    5       1          8       0.50839764D-04
    5       1          9       0.17422297D-04
    5       1         10       0.13359328D-04
    5       1         11       0.31327529D-05
*** CPKS converged.
----------------------------------------------
    5       2          1       0.59508954D-01
    5       2          2       0.75318458D-02
    5       2          3       0.24825618D-02
    5       2          4       0.26372223D-02
    5       2          5       0.13854738D-02
    5       2          6       0.51478628D-03
    5       2          7       0.81504994D-04
    5       2          8       0.62422330D-04
    5       2          9       0.23136867D-04
    5       2         10       0.94938570D-05
*** CPKS converged.
----------------------------------------------
    5       3          1       0.10094519D-01
    5       3          2       0.58755255D-02
    5       3          3       0.91049745D-03
    5       3          4       0.61699309D-03
    5       3          5       0.39807914D-03
    5       3          6       0.20506284D-03
    5       3          7       0.73436958D-04
    5       3          8       0.17402873D-04
    5       3          9       0.72502986D-05
*** CPKS converged.
----------------------------------------------

====================  end of solving CPKS equations  ====================

==========================
###### NUCLEUS:    25  B  
==========================

====================  solving CPKS equations  ====================

NUCLEUS  COORD.    ITERATION   ACCURACY
-------  ------    ---------   --------
   25       1          1       0.15983620D+00
   25       1          2       0.48818145D-02
   25       1          3       0.27327912D-02
   25       1          4       0.10099283D-02
   25       1          5       0.45884591D-03
   25       1          6       0.44072940D-03
   25       1          7       0.18521654D-03
   25       1          8       0.66382432D-04
   25       1          9       0.17592294D-04
   25       1         10       0.82712378D-05
*** CPKS converged.
----------------------------------------------
   25       2          1       0.10715886D+00
   25       2          2       0.84113594D-02
   25       2          3       0.34553994D-02
   25       2          4       0.81745677D-03
   25       2          5       0.39855573D-03
   25       2          6       0.30912218D-03
   25       2          7       0.18330730D-03
   25       2          8       0.51239969D-04
   25       2          9       0.16740661D-04
   25       2         10       0.50310677D-05
*** CPKS converged.
----------------------------------------------
   25       3          1       0.36859886D-01
   25       3          2       0.10198609D-01
   25       3          3       0.25922583D-02
   25       3          4       0.60934529D-03
   25       3          5       0.18273561D-03
   25       3          6       0.18518553D-03
   25       3          7       0.40092156D-04
   25       3          8       0.29997416D-04
   25       3          9       0.13781720D-04
   25       3         10       0.64992030D-05
*** CPKS converged.
----------------------------------------------

====================  end of solving CPKS equations  ====================

==========================
###### NUCLEUS:    26  F  
==========================

====================  solving CPKS equations  ====================

NUCLEUS  COORD.    ITERATION   ACCURACY
-------  ------    ---------   --------
   26       1          1       0.25957884D-01
   26       1          2       0.15808368D-02
   26       1          3       0.54044572D-03
   26       1          4       0.23950036D-03
   26       1          5       0.89110520D-04
   26       1          6       0.17935288D-04
   26       1          7       0.93395942D-05
*** CPKS converged.
----------------------------------------------
   26       2          1       0.46123749D-01
   26       2          2       0.42794380D-02
   26       2          3       0.12736068D-02
   26       2          4       0.41757001D-03
   26       2          5       0.20873555D-03
   26       2          6       0.16418199D-03
   26       2          7       0.76674513D-04
   26       2          8       0.53785810D-04
   26       2          9       0.16021396D-04
   26       2         10       0.24273361D-05
*** CPKS converged.
----------------------------------------------
   26       3          1       0.33333054D-02
   26       3          2       0.98293725D-03
   26       3          3       0.42272748D-03
   26       3          4       0.12205555D-03
   26       3          5       0.51166139D-04
   26       3          6       0.21187950D-04
   26       3          7       0.77308876D-05
*** CPKS converged.
----------------------------------------------

====================  end of solving CPKS equations  ====================

==========================
###### NUCLEUS:    27  F  
==========================

====================  solving CPKS equations  ====================

NUCLEUS  COORD.    ITERATION   ACCURACY
-------  ------    ---------   --------
   27       1          1       0.36087403D-01
   27       1          2       0.15062754D-02
   27       1          3       0.74862153D-03
   27       1          4       0.20201601D-03
   27       1          5       0.11137804D-03
   27       1          6       0.12640307D-03
   27       1          7       0.55752908D-04
   27       1          8       0.22219836D-04
   27       1          9       0.74944163D-05
*** CPKS converged.
----------------------------------------------
   27       2          1       0.17707447D-01
   27       2          2       0.20694432D-02
   27       2          3       0.68942555D-03
   27       2          4       0.27918041D-03
   27       2          5       0.64768727D-04
   27       2          6       0.38469791D-04
   27       2          7       0.24767333D-04
   27       2          8       0.18615201D-04
   27       2          9       0.41438217D-05
*** CPKS converged.
----------------------------------------------
   27       3          1       0.27623128D-01
   27       3          2       0.66260800D-02
   27       3          3       0.12194604D-02
   27       3          4       0.45119054D-03
   27       3          5       0.18484181D-03
   27       3          6       0.78325321D-04
   27       3          7       0.51956822D-04
   27       3          8       0.49504038D-04
   27       3          9       0.69437894D-05
*** CPKS converged.
----------------------------------------------

====================  end of solving CPKS equations  ====================

==========================
###### NUCLEUS:    28  F  
==========================

====================  solving CPKS equations  ====================

NUCLEUS  COORD.    ITERATION   ACCURACY
-------  ------    ---------   --------
   28       1          1       0.44685728D-01
   28       1          2       0.35390915D-02
   28       1          3       0.10266092D-02
   28       1          4       0.34636250D-03
   28       1          5       0.14979770D-03
   28       1          6       0.12480780D-03
   28       1          7       0.64483217D-04
   28       1          8       0.40808992D-04
   28       1          9       0.11924898D-04
   28       1         10       0.51355042D-05
*** CPKS converged.
----------------------------------------------
   28       2          1       0.16629045D-01
   28       2          2       0.25261521D-02
   28       2          3       0.82380515D-03
   28       2          4       0.29498060D-03
   28       2          5       0.68542902D-04
   28       2          6       0.28187098D-04
   28       2          7       0.12683001D-04
   28       2          8       0.11066554D-04
   28       2          9       0.44594335D-05
*** CPKS converged.
----------------------------------------------
   28       3          1       0.10235960D-01
   28       3          2       0.45101240D-02
   28       3          3       0.92481543D-03
   28       3          4       0.38766074D-03
   28       3          5       0.10404725D-03
   28       3          6       0.42470199D-04
   28       3          7       0.11139451D-04
   28       3          8       0.16844051D-04
   28       3          9       0.69741560D-05
*** CPKS converged.
----------------------------------------------

====================  end of solving CPKS equations  ====================


====================================================================
*** DONE CALCULATING ANALYTICAL SECOND DERIVATIVES OF THE ENERGY ***
====================================================================

 Mulliken charges used for AMS results%charges...
Scanning modes in range provided by user.
Scanning Mode: 7
 *** SCANMODE_forward_adf_ScanMode_7 ***

 Energy gradients wrt nuclear displacements
 ==========================================

     Atom      Cartesian (a.u./angstrom)
                 X         Y         Z
 ----------------------------------------
     1 H     0.000000  0.000001 -0.000000
     2 C     0.000022 -0.000040 -0.000026
     3 C     0.000007  0.000012 -0.000002
     4 C     0.000005  0.000016 -0.000006
     5 O    -0.000070 -0.000026  0.000012
     6 H    -0.000010 -0.000002 -0.000005
     7 H     0.000088  0.000062  0.000032
     8 H    -0.000103 -0.000019 -0.000053
     9 H    -0.000001 -0.000023  0.000009
    10 C    -0.000036  0.000035  0.000057
    11 C    -0.000013 -0.000036 -0.000016
    12 C     0.000034  0.000040  0.000011
    13 C    -0.000004 -0.000006  0.000018
    14 C     0.000017  0.000016 -0.000031
    15 H    -0.000096 -0.000074 -0.000049
    16 H     0.000003 -0.000010 -0.000000
    17 H     0.000003 -0.000007 -0.000004
    18 H     0.000001 -0.000010  0.000001
    19 H     0.000000 -0.000018  0.000007
    20 H    -0.000008 -0.000014 -0.000008
    21 H     0.000099  0.000010  0.000050
    22 H     0.000009 -0.000010 -0.000014
    23 H     0.000020 -0.000005  0.000007
    24 H    -0.000009  0.000008  0.000001
    25 B     0.000044  0.000033  0.000052
    26 F    -0.000006  0.000016 -0.000002
    27 F     0.000002  0.000022 -0.000018
    28 F     0.000003  0.000028 -0.000023
 ----------------------------------------
 Mulliken charges used for AMS results%charges...
Old/New Frequency [cm-1]:  -298.845209/ -298.911145

Scanning Mode: 8
 *** SCANMODE_forward_adf_ScanMode_8 ***
