

 Parallel Execution: Process Information
 ==============================================================================
 Rank   Node Name                              NodeID   MyNodeRank  NodeMaster
    0   node119                                   0          0          0
    1   node119                                   0          1         -1
    2   node119                                   0          2         -1
    3   node119                                   0          3         -1
 ==============================================================================


May use up to 122928MB of RAM as shared memory on node 0

 *******************************************************************************
 *                                                                             *
 *  --------------------------------                                           *
 *   Amsterdam Modeling Suite (AMS)              2021.102                      *
 *  --------------------------------                                           *
 *                                               r95042 2021-06-07             *
 *                                                                             *
 *                                                                             *
 *                              =================                              *
 *                              |               |                              *
 *                              |     A M S     |                              *
 *                              |               |                              *
 *                              =================                              *
 *                                                                             *
 *                                                                             *
 *   Online information and documentation:  https://www.scm.com/support/       *
 *   E-mail:  support@scm.com   info@scm.com                                   *
 *                                                                             *
 *   Scientific publications using AMS results must be properly referenced     *
 *   See the User Manuals (or the web site) for recommended citations          *
 *   The terms and conditions of the End User License Agreement apply to       *
 *   the use of AMS, https://www.scm.com/license-terms/                        *
 *                                                                             *
 **********************  x86_64_linux_intel / intelmpi  ************************
 
 Licensed to: VU/FEW (+ SARA) / ALGEMEEN / Amsterdam / THE NETHERLANDS
 SCM User ID: u7668
  
 AMS 2021.102  RunTime: Jan18-2022 14:21:50  ShM Nodes: 1  Procs: 4

 AMS jobname: ams
 AMS jobid  : 1277876106

 Start   directory: /scistor/tc/yhk800/master/calculations/2.GO_R_CH2CCHO/
 Results directory: /scistor/tc/yhk800/master/calculations/2.GO_R_CH2CCHO/ams.results/
 Scratch directory: /scratch/3115/amstmp_ams_kid0.1277876106/


 Communication costs MPI_COMM_WORLD:      0.951 usec per message,   0.0040 usec per 8-byte item
 Communication costs for intra-node:      0.945 usec per message,   0.0040 usec per 8-byte item

 RNG seed: -1268928889 988465541 1465706061 1921040390 1756240506 331189651 -305452704 2036971906



                      ************************************************************************
                      *  ADF 2021.102  RunTime: Jan18-2022 14:21:50  ShM Nodes: 1  Procs: 4  *
                      ************************************************************************
  
       ***************************
       *  GEOMETRY OPTIMIZATION  *
       ***************************

Optimization Method                    Quasi Newton
Optimization Coordinates               Delocalized Coordinates
Optimize lattice                       F
 
 ------------------------------------------------------
 Convergence criteria (Hartree,Angstrom)
 ------------------------------------------------------
 Maximum gradient               0.001000000000
 Maximum rms gradient           0.000666666667
 Maximum step allowed           0.010000000000
 Maximum rms step allowed       0.006666666667
 Maximum energy change allowe   0.000080000000
 Maximum stress energy allowe   0.000500000000
 
Initial model Hessian                  Automatic Hessian
 
------------------------------------
Quasi-Newton Optimizer Parameters
------------------------------------
Hessian Update Method                  BFGS
Maximum number of steps                  250
First GDIIS cycle                          0
Maximum GDIIS vectors                      0
Trust radius (bohr)                        0.200000
Trust radius varies                        T
Constraints converged at all steps         T
Use projector                              T
 
 Rigid motions settings for: old optimizer
 Atomic rotations (x,y,z):     T T T
 Atomic translations (x,y,z):  T T T
 Tolerance:                   1.000000000000000E-006
 
--------
Geometry
--------
Formula: C3H4O
Atoms
  Index Symbol   x (angstrom)   y (angstrom)   z (angstrom)
      1      C     0.31224700     0.44519900     0.00000000
      2      C     0.98391400    -0.71430800     0.00000000
      3      H     0.45842300    -1.66804700     0.00000000
      4      C    -1.16278400     0.48525400     0.00000000
      5      H     0.82313200     1.40706500     0.00000000
      6      H     2.06993200    -0.75217900     0.00000000
      7      O    -1.82405800     1.50729100     0.00000000
      8      H    -1.65638200    -0.51705900     0.00000000
 
Total System Charge             0.00000
 
 
----------------
ADF Engine Input
----------------
 
 BASIS
 type TZ2P
 core none
 END
 SYMMETRY NOSYM
 SCF
 ITERATIONS 99
 Converge 1.0e-6
 END
 XC
 GGA OLYP
 END
 NumericalQuality VERYGOOD
 

 Title: *** (NO TITLE) ***

Number of symmetry operators: 2
Schoenflies symbol:           C(S)
 Using automatic Hessian for delocalized coordinates.
 *** GOStep1 ***

 Energy gradients wrt nuclear displacements
 ==========================================

     Atom      Cartesian (a.u./angstrom)
                 X         Y         Z
 ----------------------------------------
     1 C     0.000001 -0.000003 -0.000000
     2 C    -0.000002  0.000000  0.000000
     3 H    -0.000004 -0.000003 -0.000000
     4 C    -0.000004  0.000002 -0.000000
     5 H     0.000005 -0.000002 -0.000000
     6 H    -0.000003 -0.000004  0.000000
     7 O     0.000003  0.000002  0.000000
     8 H     0.000003  0.000008  0.000000
 ----------------------------------------
 Mulliken charges used for AMS results%charges...
 
---------------------------------------------------------
Geometry Convergence after Step   1       ** CONVERGED **
---------------------------------------------------------
current energy                               -1.68728297 Hartree
energy change                      -1.68728297     0.00008000    F
constrained gradient max            0.00000459     0.00100000    T
constrained gradient rms            0.00000190     0.00066667    T
gradient max                        0.00000459
gradient rms                        0.00000190
cart. step max                      0.00000888     0.01000000    T
cart. step rms                      0.00000306     0.00666667    T
 
Geometry optimization converged

Optimized geometry:
 
--------
Geometry
--------
Formula: C3H4O
Atoms
  Index Symbol   x (angstrom)   y (angstrom)   z (angstrom)
      1      C     0.31224700     0.44519900     0.00000000
      2      C     0.98391400    -0.71430800     0.00000000
      3      H     0.45842300    -1.66804700     0.00000000
      4      C    -1.16278400     0.48525400     0.00000000
      5      H     0.82313200     1.40706500     0.00000000
      6      H     2.06993200    -0.75217900     0.00000000
      7      O    -1.82405800     1.50729100     0.00000000
      8      H    -1.65638200    -0.51705900     0.00000000
 
Total System Charge             0.00000
 
Performing a single point calculation on the final geometry ...

 *** adf ***



 ===========================
 A T T A C H E D   F I L E S
 ===========================
  
 Restart/scratch/3115/amstmp_ams_kid0.1277876106/GOStep1.rkf*** GOStep1 ***



 ===============================
 M O D E L   P A R A M E T E R S
 ===============================
  
 DENSITY FUNCTIONAL POTENTIAL (scf)
    LDA:                               Exchange only                           == Not Default ==
    Gradient Corrections:              OPTX LYP                                == Not Default ==

 SPIN  (restricted / unrestr.)
    Molecule:                          Restricted                               
    Fragments:                         Restricted                               

 OTHER ASPECTS
    Relativistic Corrections:          scalar (ZORA,MAPA)                       

    Nuclear Charge Density Model:      Point Charge Nuclei                      
    Core Treatment:                    Frozen Orbital(s)                        

    Hyperfine or Zeeman Interaction:   ---                                      



 ===============
 G E O M E T R Y  ***  Planar Molecule  ***
 ===============
  

 ATOMS
 =====                            X Y Z                    CHARGE
                                (Angstrom)             Nucl     +Core       At.Mass
                       --------------------------    ----------------       -------
    1  C               0.3122    0.4452    0.0000      6.00      6.00       12.0000
    2  C               0.9839   -0.7143    0.0000      6.00      6.00       12.0000
    3  H               0.4584   -1.6680    0.0000      1.00      1.00        1.0078
    4  C              -1.1628    0.4853    0.0000      6.00      6.00       12.0000
    5  H               0.8231    1.4071    0.0000      1.00      1.00        1.0078
    6  H               2.0699   -0.7522    0.0000      1.00      1.00        1.0078
    7  O              -1.8241    1.5073    0.0000      8.00      8.00       15.9949
    8  H              -1.6564   -0.5171    0.0000      1.00      1.00        1.0078


 FRAGMENTS
 =========                                     Atoms in this Fragment     Cart. coord.s (Angstrom)
                                               -------------------------------------------------------
    1  C                                                 1  C            0.3122    0.4452    0.0000
    2  C                                                 2  C            0.9839   -0.7143    0.0000
    3  C                                                 4  C           -1.1628    0.4853    0.0000
    4  H                                                 3  H            0.4584   -1.6680    0.0000
    5  H                                                 5  H            0.8231    1.4071    0.0000
    6  H                                                 6  H            2.0699   -0.7522    0.0000
    7  H                                                 8  H           -1.6564   -0.5171    0.0000
    8  O                                                 7  O           -1.8241    1.5073    0.0000


 Interatomic Distance Matrix (Angstrom)
 --------------------------------------

   1)     0.000
   2)     1.340   0.000
   3)     2.118   1.089   0.000
   4)     1.476   2.459   2.695   0.000
   5)     1.089   2.127   3.097   2.189   0.000
   6)     2.127   1.087   1.854   3.461   2.493   0.000
   7)     2.386   3.581   3.911   1.217   2.649   4.502   0.000
   8)     2.191   2.648   2.408   1.117   3.139   3.734   2.031   0.000

 Min. Distance =    1.0867
 Max. Distance =    4.5020



 =====================================
 S Y M M E T R Y ,   E L E C T R O N S
 =====================================
  
 Symmetry: NOSYM

 Irreducible Representations, including subspecies
 -------------------------------------------------
 A


 Configuration of Valence Electrons
 ==================================
 ( determined in the SCF procedure )

 Total:   30

 Net Charge: 0 (Nuclei minus Electrons)

 Aufbau principle for MO occupations will be applied through SCF cycle no.      49
 Thereafter, the program will assign electrons to MOs that are spatially
 similar to the occupied MOs in a "reference" cycle ("KeepOrbitals").
 The reference cycle is always the PREVIOUS cycle: it will evolve with
 the SCF procedure.
1
 ***************************************************************************************************



                                      ****************************************
                                      *  B U I L D : (Fragments, Functions)  *
                                      ****************************************
  



 =======
 S F O s  ***  (Symmetrized Fragment Orbitals)  ***
 =======
  
 SFOs are linear combinations of (valence) Fragment Orbitals (FOs), such that the SFOs transform as the
 irreducible representations of the (molecular) symmetry group. Each SFO is therefore characterized by
 an irrep of the molecule and by a few (or only one) generating FOs.
 The SFOs constitute a symmetry-adapted basis for the Fock matrix. The MO eigenvector coefficients in
 this basis provide a direct interpretation of the MOs in terms of Frontier Orbital Theory.

 The SFOs are combined with auxiliary Core Functions (CFs) to ensure orthogonalization on the (frozen)
 Core Orbitals (COs). The Core-orthogonalized SFOs (CSFOs) constitute the true Fock basis.

 The FOs, and hence also the (C)SFOs are combinations of the elementary basis functions (BAS). The basis
 functions that participate in the description of the SFOs depend on the irrep. The indices of the
 involved functions are printed below for each irrep.
 (The complete list of primitive basis functions is printed in another section)

 Total nr. of (C)SFOs (summation over all irreps) :   148

 NOTE: a (C)SFO that is defined as a combination of more than one FO is usually NOT normalized.



                                       === A ===
 Nr. of SFOs :  148
 Cartesian basis functions that participate in this irrep (total number =   168) :
      1     2     3     4     5     6     9    12     7    10
     13     8    11    14    15    16    17    18    19    20
     21    22    23    24    25    26    27    28    29    30
     31    32    33    34    35    36    39    42    37    40
     43    38    41    44    45    46    47    48    49    50
     51    52    53    54    55    56    57    58    59    60
     61    62    63    64    65    66    69    72    67    70
     73    68    71    74    75    76    77    78    79    80
     81    82    83    84    85    86    87    88    89    90
     91    92    93    94    95    96    97    98    99   100
    101   102   103   104   105   106   107   108   109   110
    111   112   113   114   115   116   117   118   119   120
    121   122   123   124   125   126   127   128   129   130
    131   132   133   134   135   136   137   138   139   140
    141   142   143   144   147   150   145   148   151   146
    149   152   153   154   155   156   157   158   159   160
    161   162   163   164   165   166   167   168

    SFO  (index         Fragment          Generating    Expansion in Fragment Orbitals
  indx  incl.CFs)   Occup   Orb.Energy   FragmentType  Coeff.   Orbital     on Fragment
 --------------------------------------------------------------------------------------
     1       1      2.000     -10.064 au  C             1.00      1 S               1
                        (    -273.865 eV)
     2       2      2.000      -0.507 au  C             1.00      2 S               1
                        (     -13.802 eV)
     3       3       --         0.384 au  C             1.00      3 S               1
                        (      10.456 eV)
     4       4       --         5.458 au  C             1.00      4 S               1
                        (     148.511 eV)
     5       5       --        49.970 au  C             1.00      5 S               1
                        (    1359.766 eV)
     6       6      0.667      -0.189 au  C             1.00      1 P:x             1
                        (      -5.135 eV)
     7       7       --         0.168 au  C             1.00      2 P:x             1
                        (       4.559 eV)
     8       8       --         2.056 au  C             1.00      3 P:x             1
                        (      55.959 eV)
     9       9      0.667      -0.189 au  C             1.00      1 P:y             1
                        (      -5.135 eV)
    10      10       --         0.168 au  C             1.00      2 P:y             1
                        (       4.559 eV)
    11      11       --         2.056 au  C             1.00      3 P:y             1
                        (      55.959 eV)
    12      12      0.667      -0.189 au  C             1.00      1 P:z             1
                        (      -5.135 eV)
    13      13       --         0.168 au  C             1.00      2 P:z             1
                        (       4.559 eV)
    14      14       --         2.056 au  C             1.00      3 P:z             1
                        (      55.959 eV)
    15      15       --         1.235 au  C             1.00      1 D:z2            1
                        (      33.605 eV)
    16      16       --         1.235 au  C             1.00      1 D:x2-y2         1
                        (      33.605 eV)
    17      17       --         1.235 au  C             1.00      1 D:xy            1
                        (      33.605 eV)
    18      18       --         1.235 au  C             1.00      1 D:xz            1
                        (      33.605 eV)
    19      19       --         1.235 au  C             1.00      1 D:yz            1
                        (      33.605 eV)
    20      20       --         4.005 au  C             1.00      1 F:z3            1
                        (     108.969 eV)
    21      21       --         4.005 au  C             1.00      1 F:z             1
                        (     108.969 eV)
    22      22       --         4.005 au  C             1.00      1 F:xyz           1
                        (     108.969 eV)
    23      23       --         4.005 au  C             1.00      1 F:z2x           1
                        (     108.969 eV)
    24      24       --         4.005 au  C             1.00      1 F:z2y           1
                        (     108.969 eV)
    25      25       --         4.005 au  C             1.00      1 F:x             1
                        (     108.969 eV)
    26      26       --         4.005 au  C             1.00      1 F:y             1
                        (     108.969 eV)
    27      27      2.000     -10.064 au  C             1.00      1 S               2
                        (    -273.865 eV)
    28      28      2.000      -0.507 au  C             1.00      2 S               2
                        (     -13.802 eV)
    29      29       --         0.384 au  C             1.00      3 S               2
                        (      10.456 eV)
    30      30       --         5.458 au  C             1.00      4 S               2
                        (     148.511 eV)
    31      31       --        49.970 au  C             1.00      5 S               2
                        (    1359.766 eV)
    32      32      0.667      -0.189 au  C             1.00      1 P:x             2
                        (      -5.135 eV)
    33      33       --         0.168 au  C             1.00      2 P:x             2
                        (       4.559 eV)
    34      34       --         2.056 au  C             1.00      3 P:x             2
                        (      55.959 eV)
    35      35      0.667      -0.189 au  C             1.00      1 P:y             2
                        (      -5.135 eV)
    36      36       --         0.168 au  C             1.00      2 P:y             2
                        (       4.559 eV)
    37      37       --         2.056 au  C             1.00      3 P:y             2
                        (      55.959 eV)
    38      38      0.667      -0.189 au  C             1.00      1 P:z             2
                        (      -5.135 eV)
    39      39       --         0.168 au  C             1.00      2 P:z             2
                        (       4.559 eV)
    40      40       --         2.056 au  C             1.00      3 P:z             2
                        (      55.959 eV)
    41      41       --         1.235 au  C             1.00      1 D:z2            2
                        (      33.605 eV)
    42      42       --         1.235 au  C             1.00      1 D:x2-y2         2
                        (      33.605 eV)
    43      43       --         1.235 au  C             1.00      1 D:xy            2
                        (      33.605 eV)
    44      44       --         1.235 au  C             1.00      1 D:xz            2
                        (      33.605 eV)
    45      45       --         1.235 au  C             1.00      1 D:yz            2
                        (      33.605 eV)
    46      46       --         4.005 au  C             1.00      1 F:z3            2
                        (     108.969 eV)
    47      47       --         4.005 au  C             1.00      1 F:z             2
                        (     108.969 eV)
    48      48       --         4.005 au  C             1.00      1 F:xyz           2
                        (     108.969 eV)
    49      49       --         4.005 au  C             1.00      1 F:z2x           2
                        (     108.969 eV)
    50      50       --         4.005 au  C             1.00      1 F:z2y           2
                        (     108.969 eV)
    51      51       --         4.005 au  C             1.00      1 F:x             2
                        (     108.969 eV)
    52      52       --         4.005 au  C             1.00      1 F:y             2
                        (     108.969 eV)
    53      53      2.000     -10.064 au  C             1.00      1 S               3
                        (    -273.865 eV)
    54      54      2.000      -0.507 au  C             1.00      2 S               3
                        (     -13.802 eV)
    55      55       --         0.384 au  C             1.00      3 S               3
                        (      10.456 eV)
    56      56       --         5.458 au  C             1.00      4 S               3
                        (     148.511 eV)
    57      57       --        49.970 au  C             1.00      5 S               3
                        (    1359.766 eV)
    58      58      0.667      -0.189 au  C             1.00      1 P:x             3
                        (      -5.135 eV)
    59      59       --         0.168 au  C             1.00      2 P:x             3
                        (       4.559 eV)
    60      60       --         2.056 au  C             1.00      3 P:x             3
                        (      55.959 eV)
    61      61      0.667      -0.189 au  C             1.00      1 P:y             3
                        (      -5.135 eV)
    62      62       --         0.168 au  C             1.00      2 P:y             3
                        (       4.559 eV)
    63      63       --         2.056 au  C             1.00      3 P:y             3
                        (      55.959 eV)
    64      64      0.667      -0.189 au  C             1.00      1 P:z             3
                        (      -5.135 eV)
    65      65       --         0.168 au  C             1.00      2 P:z             3
                        (       4.559 eV)
    66      66       --         2.056 au  C             1.00      3 P:z             3
                        (      55.959 eV)
    67      67       --         1.235 au  C             1.00      1 D:z2            3
                        (      33.605 eV)
    68      68       --         1.235 au  C             1.00      1 D:x2-y2         3
                        (      33.605 eV)
    69      69       --         1.235 au  C             1.00      1 D:xy            3
                        (      33.605 eV)
    70      70       --         1.235 au  C             1.00      1 D:xz            3
                        (      33.605 eV)
    71      71       --         1.235 au  C             1.00      1 D:yz            3
                        (      33.605 eV)
    72      72       --         4.005 au  C             1.00      1 F:z3            3
                        (     108.969 eV)
    73      73       --         4.005 au  C             1.00      1 F:z             3
                        (     108.969 eV)
    74      74       --         4.005 au  C             1.00      1 F:xyz           3
                        (     108.969 eV)
    75      75       --         4.005 au  C             1.00      1 F:z2x           3
                        (     108.969 eV)
    76      76       --         4.005 au  C             1.00      1 F:z2y           3
                        (     108.969 eV)
    77      77       --         4.005 au  C             1.00      1 F:x             3
                        (     108.969 eV)
    78      78       --         4.005 au  C             1.00      1 F:y             3
                        (     108.969 eV)
    79      79      1.000      -0.238 au  H             1.00      1 S               4
                        (      -6.484 eV)
    80      80       --         0.077 au  H             1.00      2 S               4
                        (       2.096 eV)
    81      81       --         1.521 au  H             1.00      3 S               4
                        (      41.380 eV)
    82      82       --         0.410 au  H             1.00      1 P:x             4
                        (      11.162 eV)
    83      83       --         0.410 au  H             1.00      1 P:y             4
                        (      11.162 eV)
    84      84       --         0.410 au  H             1.00      1 P:z             4
                        (      11.162 eV)
    85      85       --         2.567 au  H             1.00      1 D:z2            4
                        (      69.838 eV)
    86      86       --         2.567 au  H             1.00      1 D:x2-y2         4
                        (      69.838 eV)
    87      87       --         2.567 au  H             1.00      1 D:xy            4
                        (      69.838 eV)
    88      88       --         2.567 au  H             1.00      1 D:xz            4
                        (      69.838 eV)
    89      89       --         2.567 au  H             1.00      1 D:yz            4
                        (      69.838 eV)
    90      90      1.000      -0.238 au  H             1.00      1 S               5
                        (      -6.484 eV)
    91      91       --         0.077 au  H             1.00      2 S               5
                        (       2.096 eV)
    92      92       --         1.521 au  H             1.00      3 S               5
                        (      41.380 eV)
    93      93       --         0.410 au  H             1.00      1 P:x             5
                        (      11.162 eV)
    94      94       --         0.410 au  H             1.00      1 P:y             5
                        (      11.162 eV)
    95      95       --         0.410 au  H             1.00      1 P:z             5
                        (      11.162 eV)
    96      96       --         2.567 au  H             1.00      1 D:z2            5
                        (      69.838 eV)
    97      97       --         2.567 au  H             1.00      1 D:x2-y2         5
                        (      69.838 eV)
    98      98       --         2.567 au  H             1.00      1 D:xy            5
                        (      69.838 eV)
    99      99       --         2.567 au  H             1.00      1 D:xz            5
                        (      69.838 eV)
   100     100       --         2.567 au  H             1.00      1 D:yz            5
                        (      69.838 eV)
   101     101      1.000      -0.238 au  H             1.00      1 S               6
                        (      -6.484 eV)
   102     102       --         0.077 au  H             1.00      2 S               6
                        (       2.096 eV)
   103     103       --         1.521 au  H             1.00      3 S               6
                        (      41.380 eV)
   104     104       --         0.410 au  H             1.00      1 P:x             6
                        (      11.162 eV)
   105     105       --         0.410 au  H             1.00      1 P:y             6
                        (      11.162 eV)
   106     106       --         0.410 au  H             1.00      1 P:z             6
                        (      11.162 eV)
   107     107       --         2.567 au  H             1.00      1 D:z2            6
                        (      69.838 eV)
   108     108       --         2.567 au  H             1.00      1 D:x2-y2         6
                        (      69.838 eV)
   109     109       --         2.567 au  H             1.00      1 D:xy            6
                        (      69.838 eV)
   110     110       --         2.567 au  H             1.00      1 D:xz            6
                        (      69.838 eV)
   111     111       --         2.567 au  H             1.00      1 D:yz            6
                        (      69.838 eV)
   112     112      1.000      -0.238 au  H             1.00      1 S               7
                        (      -6.484 eV)
   113     113       --         0.077 au  H             1.00      2 S               7
                        (       2.096 eV)
   114     114       --         1.521 au  H             1.00      3 S               7
                        (      41.380 eV)
   115     115       --         0.410 au  H             1.00      1 P:x             7
                        (      11.162 eV)
   116     116       --         0.410 au  H             1.00      1 P:y             7
                        (      11.162 eV)
   117     117       --         0.410 au  H             1.00      1 P:z             7
                        (      11.162 eV)
   118     118       --         2.567 au  H             1.00      1 D:z2            7
                        (      69.838 eV)
   119     119       --         2.567 au  H             1.00      1 D:x2-y2         7
                        (      69.838 eV)
   120     120       --         2.567 au  H             1.00      1 D:xy            7
                        (      69.838 eV)
   121     121       --         2.567 au  H             1.00      1 D:xz            7
                        (      69.838 eV)
   122     122       --         2.567 au  H             1.00      1 D:yz            7
                        (      69.838 eV)
   123     123      2.000     -18.926 au  O             1.00      1 S               8
                        (    -515.001 eV)
   124     124      2.000      -0.887 au  O             1.00      2 S               8
                        (     -24.136 eV)
   125     125       --         0.804 au  O             1.00      3 S               8
                        (      21.890 eV)
   126     126       --        13.488 au  O             1.00      4 S               8
                        (     367.032 eV)
   127     127       --       121.767 au  O             1.00      5 S               8
                        (    3313.451 eV)
   128     128      1.333      -0.329 au  O             1.00      1 P:x             8
                        (      -8.949 eV)
   129     129       --         0.351 au  O             1.00      2 P:x             8
                        (       9.557 eV)
   130     130       --         3.863 au  O             1.00      3 P:x             8
                        (     105.120 eV)
   131     131      1.333      -0.329 au  O             1.00      1 P:y             8
                        (      -8.949 eV)
   132     132       --         0.351 au  O             1.00      2 P:y             8
                        (       9.557 eV)
   133     133       --         3.863 au  O             1.00      3 P:y             8
                        (     105.120 eV)
   134     134      1.333      -0.329 au  O             1.00      1 P:z             8
                        (      -8.949 eV)
   135     135       --         0.351 au  O             1.00      2 P:z             8
                        (       9.557 eV)
   136     136       --         3.863 au  O             1.00      3 P:z             8
                        (     105.120 eV)
   137     137       --         1.072 au  O             1.00      1 D:z2            8
                        (      29.175 eV)
   138     138       --         1.072 au  O             1.00      1 D:x2-y2         8
                        (      29.175 eV)
   139     139       --         1.072 au  O             1.00      1 D:xy            8
                        (      29.175 eV)
   140     140       --         1.072 au  O             1.00      1 D:xz            8
                        (      29.175 eV)
   141     141       --         1.072 au  O             1.00      1 D:yz            8
                        (      29.175 eV)
   142     142       --         3.353 au  O             1.00      1 F:z3            8
                        (      91.230 eV)
   143     143       --         3.353 au  O             1.00      1 F:z             8
                        (      91.230 eV)
   144     144       --         3.353 au  O             1.00      1 F:xyz           8
                        (      91.230 eV)
   145     145       --         3.353 au  O             1.00      1 F:z2x           8
                        (      91.230 eV)
   146     146       --         3.353 au  O             1.00      1 F:z2y           8
                        (      91.230 eV)
   147     147       --         3.353 au  O             1.00      1 F:x             8
                        (      91.230 eV)
   148     148       --         3.353 au  O             1.00      1 F:y             8
                        (      91.230 eV)



 ================================
 (Slater-type)  F U N C T I O N S  ***  (Basis and Fit)  ***
 ================================
  

 Atom Type    1  (C)
 ==============

 Valence Basis Sets:  10
 -----------------------
   1 S    7.680000
   1 S    5.000000
   2 S    1.280000
   2 S    2.100000
   2 S    4.600000
   2 P    0.820000
   2 P    1.480000
   2 P    2.940000
   3 D    2.200000
   4 F    3.300000

 Atom Type    2  (H)
 ==============

 Valence Basis Sets:   5
 -----------------------
   1 S    0.690000
   1 S    0.920000
   1 S    1.580000
   2 P    1.250000
   3 D    2.500000

 Atom Type    3  (O)
 ==============

 Valence Basis Sets:  10
 -----------------------
   1 S    9.800000
   1 S    6.800000
   2 S    7.580000
   2 S    2.880000
   2 S    1.720000
   2 P    4.080000
   2 P    2.080000
   2 P    1.120000
   3 D    2.000000
   4 F    3.000000


 BAS: List of all Elementary Cartesian Basis Functions
 =====================================================

 The numbering in the list below (to the right of the function characteristics) is referred
 to in print-outs of MO eigenvectors and Mulliken populations in the BAS representation
 (as contrasted to the SFO representation).

 Notes:
 1. The functions are characterized by a polynomial prefactor (powers of x,y,z and r) and
    an exponential decay factor alpha.
 2. Since the basis sets are specific for an atom TYPE, the individual functions occur on
    all atoms of that type.
 3. The word 'Core' in the left margin signals that it is a Core Function (CF) : not a
    degree of freedom in the valence set, but only used to ensure orthogonalization of
    the other valence basis functions on the frozen Core Orbitals.


 (power of) X  Y  Z  R     Alpha  on Atom
            ==========     =====     ==========

 C                                    1    2    3
                                  ---------------------------------------------------------------------------
            0  0  0  0     7.680      1   31   61
            0  0  0  0     5.000      2   32   62
            0  0  0  1     1.280      3   33   63
            0  0  0  1     2.100      4   34   64
            0  0  0  1     4.600      5   35   65
            1  0  0  0     0.820      6   36   66
            0  1  0  0     0.820      7   37   67
            0  0  1  0     0.820      8   38   68
            1  0  0  0     1.480      9   39   69
            0  1  0  0     1.480     10   40   70
            0  0  1  0     1.480     11   41   71
            1  0  0  0     2.940     12   42   72
            0  1  0  0     2.940     13   43   73
            0  0  1  0     2.940     14   44   74
            2  0  0  0     2.200     15   45   75
            1  1  0  0     2.200     16   46   76
            1  0  1  0     2.200     17   47   77
            0  2  0  0     2.200     18   48   78
            0  1  1  0     2.200     19   49   79
            0  0  2  0     2.200     20   50   80
            3  0  0  0     3.300     21   51   81
            2  1  0  0     3.300     22   52   82
            2  0  1  0     3.300     23   53   83
            1  2  0  0     3.300     24   54   84
            1  1  1  0     3.300     25   55   85
            1  0  2  0     3.300     26   56   86
            0  3  0  0     3.300     27   57   87
            0  2  1  0     3.300     28   58   88
            0  1  2  0     3.300     29   59   89
            0  0  3  0     3.300     30   60   90

 H                                    4    5    6    7
                                  ---------------------------------------------------------------------------
            0  0  0  0     0.690     91  103  115  127
            0  0  0  0     0.920     92  104  116  128
            0  0  0  0     1.580     93  105  117  129
            1  0  0  0     1.250     94  106  118  130
            0  1  0  0     1.250     95  107  119  131
            0  0  1  0     1.250     96  108  120  132
            2  0  0  0     2.500     97  109  121  133
            1  1  0  0     2.500     98  110  122  134
            1  0  1  0     2.500     99  111  123  135
            0  2  0  0     2.500    100  112  124  136
            0  1  1  0     2.500    101  113  125  137
            0  0  2  0     2.500    102  114  126  138

 O                                    8
                                  ---------------------------------------------------------------------------
            0  0  0  0     9.800    139
            0  0  0  0     6.800    140
            0  0  0  1     7.580    141
            0  0  0  1     2.880    142
            0  0  0  1     1.720    143
            1  0  0  0     4.080    144
            0  1  0  0     4.080    145
            0  0  1  0     4.080    146
            1  0  0  0     2.080    147
            0  1  0  0     2.080    148
            0  0  1  0     2.080    149
            1  0  0  0     1.120    150
            0  1  0  0     1.120    151
            0  0  1  0     1.120    152
            2  0  0  0     2.000    153
            1  1  0  0     2.000    154
            1  0  1  0     2.000    155
            0  2  0  0     2.000    156
            0  1  1  0     2.000    157
            0  0  2  0     2.000    158
            3  0  0  0     3.000    159
            2  1  0  0     3.000    160
            2  0  1  0     3.000    161
            1  2  0  0     3.000    162
            1  1  1  0     3.000    163
            1  0  2  0     3.000    164
            0  3  0  0     3.000    165
            0  2  1  0     3.000    166
            0  1  2  0     3.000    167
            0  0  3  0     3.000    168

 Total number of charge fitting functions (nprimf)       536
 Total number of Cartesian basis functions (naos)        168
 Total number of Cartesian core functions  (ncos)          0

1
 ***************************************************************************************************



                                              ***********************
                                              *  T E C H N I C A L  *
                                              ***********************
  



 =============================================================
 P A R A L L E L I Z A T I O N  and  V E C T O R I Z A T I O N
 =============================================================
  
 Nr of parallel processes:                                4
 Maximum vector length in NumInt loops:                 128



 =====================
 S C F   U P D A T E S
 =====================
  
 Max. nr. of cycles:                                99
 Convergence criterion:                              0.0000010000
   secondary criterion:                              0.0010000000

 Mix parameter (when DIIS does not apply):           0.2000000000
 Mixed ADIIS+SDIIS will be used                  
    Max number of expansion vectors:                10
    Pure ADIIS when Max([F,P]) is above              0.1000000000
    Pure SDIIS when Max([F,P]) is below              0.0010000000
 Automatic ElectronSmearing (in case of problematic SCF convergence) disabled



 =================
 P R E C I S I O N  ***  (General: NumInt, NeglectFunctionTails, ...)  ***
 =================
  

 NumInt:           Target precision:                 8.0000000000
 -------           Initial precision:                8.0000000000
                   Min. precision (optimization):    8.0000000000

 Neglect Functions:          Basis functions:        0.1000000000E-09
 ------------------          Fit functions:          0.1000000000E-09



 ===========================
 L I N E A R   S C A L I N G
 ===========================
  

 Cut-off radii density fit:                        0.1000000000E-11
 Overlap cut-off criterion AO matrix elements:     0.1000000000E-09
 Cut-offs for Coulomb potential and fitted density:0.1000000000E-11
 Cut-off criterion for Coulomb multipole terms:    0.1000000000E-11
 Progressive Convergence parameter:                 0.000000000    

 Number of elements of the density matrix on this node (used, total):      3774     14196



 ===========================================
 Numerical Integration : Fuzzy Cells (Becke)
 ===========================================
  
 Becke grid quality: VERYGOOD       
  
 Lebedev angular grid order:             min:  13 max:  41
 Nr. of radial points:                   min:  64 max:  72

 Total nr. of points:     190050
 Nr. of blocks:             1485
 Block length:               128
 Nr. of dummy points:         30


 Test of Precision of the Numerical Integration Grid
 ===================================================

 Integral of the Total Core Density:                   0.00000000000000



 ========================
 Density Fitting (zlmFit)
 ========================
  
 ZlmFit Fit Quality: VERYGOOD       
  
 Max L-expansion:                        min:  10 max:  11
 Nr. of radial interpolation points:     min: 130 max: 180



 =====
 S C F  ***  ScaSCF  ***
 =====
  
 Initial density matrix is taken from previous geometry

 CYCLE    1
  ***********************************************************
  ** : orbital data taken from :/scratch/3115/amstmp_ams_kid0.1277876106/GOStep1.rkf
  ***********************************************************
 SCF Error: norm([F,P])=      0.000000026160, max([F,P])=      0.000000007533
 orbitals (Q,E):
 ---------------
 A :6...25           ( 2.00    -0.7401)  ( 2.00    -0.5946)  ( 2.00    -0.5204)  ( 2.00    -0.4303)
                     ( 2.00    -0.4286)  ( 2.00    -0.3735)  ( 2.00    -0.3624)  ( 2.00    -0.3511)
                     ( 2.00    -0.2702)  ( 2.00    -0.2171)  ( 0.00    -0.1055)  ( 0.00    -0.0097)
                     ( 0.00    -0.0019)  ( 0.00     0.0005)  ( 0.00     0.0295)  ( 0.00     0.0610)
                     ( 0.00     0.1109)  ( 0.00     0.1298)  ( 0.00     0.1531)  ( 0.00     0.1936)

 CYCLE    2
  SDIIS (wt  0.000):  0.6773  0.3227
 A-DIIS (wt  1.000):  0.0000  1.0000
  DIIS coefficients:  0.0000  1.0000
 SCF Error: norm([F,P])=      0.000000050484, max([F,P])=      0.000000019954
 orbitals (Q,E):
 ---------------
 A :6...16           ( 2.00    -0.7401)  ( 2.00    -0.5946)  ( 2.00    -0.5204)  ( 2.00    -0.4303)
                     ( 2.00    -0.4286)  ( 2.00    -0.3735)  ( 2.00    -0.3624)  ( 2.00    -0.3511)
                     ( 2.00    -0.2702)  ( 2.00    -0.2171)  ( 0.00    -0.1055)

 SCF CONVERGED

 CYCLE    3
1
 ***************************************************************************************************



                                                *******************
                                                *  R E S U L T S  *
                                                *******************
  
 *** Using FIT density in Focky
  SDIIS (wt  0.000):  1.1052 -0.1052
 A-DIIS (wt  1.000):  0.0000  1.0000
  DIIS coefficients:  0.0000  1.0000
 SCF Error: norm([F,P])=      0.000000140025, max([F,P])=      0.000000057095

 Scaled ZORA Orbital Energies, per Irrep and Spin:
 =================================================
                        Occup              E (au)              E (eV)       Diff (eV) with prev. cycle
                        -----      --------------------        ------       --------------------------
 A
               6        2.000     -0.74005262164196E+00       -20.138              -3.96E-07
               7        2.000     -0.59457663298653E+00       -16.179              -2.77E-07
               8        2.000     -0.52037500113884E+00       -14.160              -4.41E-07
               9        2.000     -0.43026192232421E+00       -11.708              -1.95E-07
              10        2.000     -0.42856148895068E+00       -11.662               1.47E-07
              11        2.000     -0.37350708800534E+00       -10.164               2.77E-07
              12        2.000     -0.36241814235613E+00        -9.862              -4.17E-08
              13        2.000     -0.35111835910892E+00        -9.554              -1.28E-07
              14        2.000     -0.27020148396749E+00        -7.353              -1.59E-08
              15        2.000     -0.21706452631074E+00        -5.907               3.78E-07
              16        0.000     -0.10553715365139E+00        -2.872
              17        0.000     -0.97369449304600E-02        -0.265
              18        0.000     -0.18694156359210E-02        -0.051
              19        0.000      0.50486789426959E-03         0.014
              20        0.000      0.29500173785873E-01         0.803
              21        0.000      0.60961884100693E-01         1.659
              22        0.000      0.11089324397675E+00         3.018
              23        0.000      0.12983114592626E+00         3.533
              24        0.000      0.15311585467550E+00         4.166
              25        0.000      0.19357788332766E+00         5.268
  
 HOMO :       15 A                -0.21706452631074E+00
 LUMO :       16 A                -0.10553715365139E+00
  


 All Electron Calculation, thus no Orbital Energies of the Core Orbitals are calculated


 Fit test: (difference of exact and fit density, squared integrated, result summed over spins)
         Sum-of-Fragments:                             0.00000000057495
         Orthogonalized Fragments:                     0.00000105913691
         SCF:                                          0.00000222132641



 ==========================
 Electron Density at Nuclei
 ==========================
  
 The electron density is calculated at points on a small sphere around the center of a nucleus.
 The printed electron density is the average electron density on these points.
 The radius of the sphere is the printed approximate finite nuclear radius.
 Note: ZORA-4 density is used, which includes small component density

         Atom        Nuclear Radius (Angstrom)             Electron Density (a.u.)
         ----        -------------------------             -----------------------
     1)   C                 0.0000320678                              126.89933
     2)   C                 0.0000320678                              126.89700
     3)   H                 0.0000181514                                0.50374
     4)   C                 0.0000320678                              126.96275
     5)   H                 0.0000181514                                0.50338
     6)   H                 0.0000181514                                0.50337
     7)   O                 0.0000345546                              313.35814
     8)   H                 0.0000181514                                0.50287



 =======================================
 M U L L I K E N   P O P U L A T I O N S
 =======================================
  
 The survey below gives for each atom:
 a) the total charge (Z minus electrons)
 b) the net spin polarization (nr of electrons spin-A minus spin-B)
 c) for each spin the atomic electron valence density (integrated) per L-value.

 Atom              Charge    Spin density          S         P         D         F
 ----              ------    ------------       ------    ------    ------    ------
 1 C               0.1914                       3.1162    2.6329    0.0550    0.0044
 2 C               0.4640                       3.0580    2.4345    0.0402    0.0033
 3 H              -0.1934                       1.1100    0.0781    0.0053    0.0000
 4 C               0.6419                       2.9816    2.2555    0.1136    0.0074
 5 H              -0.1605                       1.0899    0.0657    0.0049    0.0000
 6 H              -0.2088                       1.1278    0.0757    0.0052    0.0000
 7 O              -0.4808                       3.8414    4.5771    0.0561    0.0061
 8 H              -0.2538                       1.1855    0.0635    0.0048    0.0000

 Populations of individual BAS functions
 ----------------------------------------
 1 C            0.4733  1.5468  0.2753  0.9003 -0.0795 -0.1117 -0.2492  0.1341  0.7994  0.8670
                0.6880  0.1827  0.1955  0.1272  0.0214  0.0169  0.0052  0.0206  0.0075 -0.0167
                0.0050  0.0025  0.0036  0.0006  0.0003 -0.0043  0.0037  0.0039 -0.0045 -0.0063
 2 C            0.4734  1.5469  0.1963  0.9233 -0.0820 -0.3365 -0.2341  0.1286  0.8990  0.8478
                0.6195  0.1882  0.1997  0.1222  0.0138  0.0123  0.0026  0.0201  0.0065 -0.0152
                0.0014  0.0005  0.0015  0.0028  0.0004 -0.0031  0.0046  0.0037 -0.0039 -0.0046
 4 C            0.4731  1.5480  0.1197  0.9253 -0.0845 -0.1951 -0.1739  0.0107  0.7849  0.7434
                0.5796  0.1904  0.2003  0.1152  0.0352  0.0312  0.0131  0.0357  0.0122 -0.0138
                0.0037  0.0039  0.0031  0.0019  0.0008 -0.0038  0.0038  0.0035 -0.0044 -0.0051
 3 H            0.2587  0.5226  0.3287  0.0286  0.0283  0.0212 -0.0010  0.0016  0.0002  0.0080
                0.0015 -0.0049
 5 H            0.2114  0.5478  0.3307  0.0192  0.0297  0.0167 -0.0016  0.0015  0.0002  0.0082
                0.0013 -0.0048
 6 H            0.2834  0.5211  0.3234  0.0345  0.0215  0.0197  0.0118  0.0023  0.0016 -0.0057
                0.0000 -0.0046
 8 H            0.3427  0.5293  0.3135  0.0163  0.0345  0.0127 -0.0027  0.0015  0.0003  0.0087
                0.0010 -0.0041
 7 O            0.6037  1.4076 -0.0446  1.0512  0.8235  0.3053  0.2775  0.2161  0.9696  0.9127
                0.7689  0.4453  0.3438  0.3379  0.0019  0.0146  0.0066  0.0176  0.0148  0.0005
               -0.0036 -0.0017 -0.0001  0.0072  0.0014 -0.0022  0.0093  0.0070 -0.0053 -0.0059

 Gross Charges per Atom (Z minus electrons)
 ==========================================
             0.1914    0.4640   -0.1934    0.6419   -0.1605   -0.2088   -0.4808   -0.2538
 Net Total:  0.00000000


 Atom-Atom Population Matrix (off-diagonal elements not doubled)
 ===============================================================

     1 :     4.7199
     2 :     0.5856    4.2936
     3 :    -0.0536    0.3871    1.0536
     4 :     0.4169   -0.0139   -0.0317    4.1045
     5 :     0.4148   -0.0743    0.0136   -0.0690    0.9411
     6 :    -0.0411    0.3734   -0.1493    0.0055   -0.0633    1.0955
     7 :    -0.0392   -0.0014    0.0022    0.5655    0.0034   -0.0021    8.0262
     8 :    -0.1947   -0.0141   -0.0285    0.3803   -0.0058   -0.0098   -0.0736    1.2000



 =================================================
 H I R S H F E L D   C H A R G E   A N A L Y S I S
 =================================================
  
 For each fragment: the (numerical) integral of rho(scf) * rho(fragment)/rho(sum-of-fragments)
 (nuclear charges are included, electrons are counted negative)

 The fragments and their ordering are defined in the early G E O M E T R Y output section.
 If you use single-atom fragments, this usually implies that all atoms of the same
 chemical type are grouped together. This may not be the order in which you listed them
 in the input file!

    1  C                        -0.0420
    2  C                        -0.0489
    3  C                         0.1057
    4  H                         0.0541
    5  H                         0.0581
    6  H                         0.0593
    7  H                         0.0359
    8  O                        -0.2222

 Sum of these charges (accuracy NumInt/Tails) =           0.00000370



 =============================
 V O R O N O I   C H A R G E S
 =============================
  
 For each atom: the (numerical) integral of the total electronic charge density in its Voronoi cell,
 i.e. the region of space that is closer to that atom than to any other atom.
 (cf. Wigner-Seitz cells in crystals)

 Within the Voronoi cell the subintegrals over the atomic sphere and the remaining part are evaluated
 separately to give the numbers of electrons (negative charge) in these regions.
 The net total charge in the cell (including the nuclear charge) is also given.

 Values are provided for
    a) the Initial (sum-of-fragments) density
    b) the Orthogonalized-Fragments density
    c) the SCF density
    d) the Voronoi Deformation Density (VDD): the difference SCF-Initial for the complete atomic cell


  Atom                Initial                    OrthFrag                   SCF
             Sphere RestCell NetTotal   Sphere RestCell NetTotal   Sphere RestCell NetTotal      VDD
 -----       ------------------------   ------------------------   ------------------------    -----
    1 C      -2.151   -3.283    0.566   -2.281   -3.303    0.416   -2.175   -3.331    0.494   -0.072
    2 C      -2.150   -2.819    1.031   -2.266   -2.955    0.778   -2.174   -2.845    0.981   -0.049
    3 H      -0.080   -1.438   -0.519   -0.104   -1.284   -0.388   -0.115   -1.347   -0.462    0.057
    4 C      -2.152   -3.210    0.638   -2.261   -3.211    0.528   -2.169   -3.078    0.753    0.116
    5 H      -0.080   -1.466   -0.546   -0.103   -1.308   -0.411   -0.115   -1.355   -0.470    0.076
    6 H      -0.081   -1.440   -0.521   -0.103   -1.296   -0.399   -0.115   -1.345   -0.460    0.060
    7 O      -3.336   -4.807   -0.142   -3.560   -4.577   -0.137   -3.366   -5.010   -0.376   -0.233
    8 H      -0.079   -1.427   -0.507   -0.102   -1.284   -0.387   -0.115   -1.345   -0.460    0.046
 ---------------------------------------------------------------------------------------------------
 Total NetCharge:               0.000                      0.000                      0.000    0.000
 (accuracy NumInt/Tails)

 Remark: the 'NetTotal' Voronoi charges often do not match the Mulliken and/or Hirshfeld charges very
 well. This is caused by the fact that chemically different atoms are not treated in accordance with
 their relative sizes. (Voronoi cells are defined by boundary planes halfway between the atoms.)
 However, the CHANGES in charge, comparing 'Initial' to 'SCF' for instance, do give a fair indication
 of the flow of charge caused by the relaxation from sum-of-fragments to self-consistency.

 Warning: the absolute accuracy of the VDD charges obtained using the Fuzzy Cells (Becke) integration
 scheme is much poorer than the one obtained with an 'equivalent' Voronoi integration grid. 



 =================================================================
 M U L T I P O L E   D E R I V E D   C H A R G E   A N A L Y S I S
 =================================================================

 This charge analysis uses the atomic multipoles (obtained from the fitted density) up to some level X,
 and reconstructs these multipoles exactly (up to level X) by distributing charges over all atoms.
 This is achieved by using Lagrange multipliers and a weight function to keep the multipoles local.

 Dummy atoms can be included (by setting INCDUM in MDC-block to 1) to obtain a fractional charge.
 This is generally useful and necessary only for small symmetrical molecules, when there are not
 enough degrees of freedom to reconstruct the multipoles.

 Since the atomic multipoles are reconstructed up to level X,
 the molecular multipoles are represented also up to level X.
 The recommended level is to reconstruct up to quadrupole : -> MDC-q charges.

 See: M. Swart, P.Th. van Duijnen, J.G. Snijders, J.Comput.Chem., (2001), p. 79-88.

 ------------------------------------------------------------- 
 Atomic electronic multipole moments from SCF equations (a.u.)
 ------------------------------------------------------------- 

   atom        charge        dip-x     dip-y     dip-z      quad-xx   quad-xy   quad-xz   quad-yy   quad-yz   quad-zz
 --------------------------------------------------------------------------------------------------------------------
    1 C      0.079246    -0.000490  0.085677  0.000000     0.395774 -0.036152 -0.000000  0.485124 -0.000000 -0.880898
    2 C      0.158796     0.045998 -0.078504  0.000000     0.426871 -0.025337 -0.000000  0.432463 -0.000000 -0.859334
    3 H     -0.051202    -0.007946 -0.021057  0.000000     0.009468  0.068706  0.000000  0.156593 -0.000000 -0.166062
    4 C      0.296110    -0.065957 -0.003325 -0.000000     0.179340 -0.013394 -0.000000  0.210691  0.000000 -0.390031
    5 H     -0.040870     0.006446  0.029889  0.000000     0.020738  0.075816  0.000000  0.146221  0.000000 -0.166958
    6 H     -0.045450     0.028338 -0.000031  0.000000     0.217128 -0.003408  0.000000 -0.052359 -0.000000 -0.164768
    7 O     -0.334286     0.167604 -0.271676  0.000000    -0.180690 -0.355610  0.000000  0.296651 -0.000000 -0.115961
    8 H     -0.062343    -0.015726  0.012709 -0.000000     0.017265  0.047065  0.000000  0.104397  0.000000 -0.121662

 --------------------------------------- 
 Multipole derived atomic charges (a.u.)
 --------------------------------------- 

 The MDC-m charges are just the Monopole terms in the multipole expansion, while for the MDC-d charges
 also the Dipoles are reconstructed. The usually preferred charges are the MDC-q charges.
 These reconstruct the Monopoles, Dipoles and Quadrupoles (both atomic AND molecular).

        Atom    Level:     MDC-m        MDC-d        MDC-q
 ---------------------------------------------------------
     1     C            0.079246     0.045282    -0.167781
     2     C            0.158796     0.103387    -0.241493
     3     H           -0.051202    -0.026731     0.131579
     4     C            0.296110     0.352249     0.365085
     5     H           -0.040870    -0.005048     0.158128
     6     H           -0.045450    -0.015346     0.142111
     7     O           -0.334286    -0.432364    -0.417845
     8     H           -0.062343    -0.021429     0.030215

 ------------------------------------------------ 
 Average absolute deviations in atomic multipoles
 ------------------------------------------------ 

 Stated here are the average differences between the atomic multipoles
 and the reconstructed atomic multipoles (from the distributed charges).
 If these values are not zero, this means there are not enough degrees of freedom,
 to be able to reconstruct the atomic multipoles. (This usually happens only
 for small and/or highly symmetric molecules). If this is the case, one could add
 dummy atoms as extra point charges (and setting INCDUM in MDC-block to 1).

 Level:                                 MDC-d        MDC-q
 ---------------------------------------------------------
 Charge   (a.u.)                       0.0000       0.0000
 Dipole   (Debye)                      0.0000       0.0000
 Quad.    (a.u.)                       0.1539       0.0000

 --------------------------------------- 
 Represented molecular multipole moments
 --------------------------------------- 

 Given here are the Molecular multipole moments from the atomic charges, and from the Fit Density.
 Note that the atomic charges represent the latter, NOT the ones from the Exact density.

            Q (a.u.)             Dipole moment (Debye)                                          Quadrupole moment (a.u.)
                                 x         y         z              xx        xy        xz        yy        yz        zz
------------------------------------------------------------------------------------------------------------------------
MDC-m        -0.0000        1.9141   -1.6523    0.0000         -1.8757    3.5386    0.0000   -1.3622    0.0000    3.2379
MDC-d        -0.0000        2.3164   -2.2784    0.0000         -1.8683    5.0553    0.0000   -1.5739    0.0000    3.4421
MDC-q         0.0000        2.3164   -2.2784    0.0000         -0.6932    5.2300    0.0000   -0.3288    0.0000    1.0220
 
Fit.Dens.    -0.0000        2.3164   -2.2784    0.0000         -0.6932    5.1088    0.0000   -0.3288   -0.0000    1.0220



 =============
 Dipole Moment  ***  (Debye)  ***
 =============
  
 Vector   :         2.31648423     -2.27850949      0.00000000
 Magnitude:         3.24926217

 This molecular dipole moment is calculated with analytic integration



 =========================================
 Quadrupole Moment (Buckingham convention)  ***  (a.u.)  ***
 =========================================
  
      quad-xx        quad-xy        quad-xz        quad-yy        quad-yz        quad-zz
     -0.69319241     4.98782040    -0.00000000    -0.32872396     0.00000000     1.02191636

 This molecular quadrupole moment is calculated with analytic integration
1



 ===========================
 B O N D I N G   E N E R G Y  ***  (decomposition)  ***
 ===========================
  
*** IMPORTANT NOTE ***

The bond energy is computed as an energy difference between molecule and
fragments. In particular when the fragments are single atoms, they are usually
computed as SPHERICALLY SYMMETRIC and SPIN-RESTRICTED. Obviously, this usually
does NOT represent the true atomic groundstate.

To obtain the 'real' bond energy, (atomic) correction terms must be applied
for the true (multiplet) fragment ground state. See ref: E.J.Baerends,
V.Branchadell, M.Sodupe, Chem.Phys.Lett.265 (1997) 481

General theoretical background on the bond energy decomposition scheme used
here (Morokuma-Ziegler) can be found in the review paper:
F.M. Bickelhaupt and E.J. Baerends,
"Kohn-Sham Density Functional Theory: Predicting and Understanding Chemistry"
In: Rev. Comput. Chem.; Lipkowitz, K. B. and Boyd, D. B., Eds.;
Wiley-VCH: New York, 2000, Vol. 15, 1-86.

Symbols used in the Bickelhaupt-Baerends (BB) paper are given below to make
the direct connection to that paper, where detailed explanations can be found
on the meaning of the various terms.


                                                   hartree              eV         kcal/mol           kJ/mol
                                      --------------------     -----------       ----------      -----------

Pauli Repulsion
  Kinetic (Delta T^0):                  16.194500338076285        440.6748         10162.20         42518.65
  Delta V^Pauli Coulomb:                -7.670037794365846       -208.7123         -4813.02        -20137.68
  Delta V^Pauli LDA-XC:                 -1.911178671586305        -52.0058         -1199.28         -5017.80
  Delta V^Pauli GGA-Exchange:            0.150782438608740          4.1030            94.62           395.88
  Delta V^Pauli GGA-Correlation:        -0.137838730115983         -3.7508           -86.50          -361.90
                                      --------------------     -----------       ----------      -----------
  Total Pauli Repulsion:                 6.626227580616890        180.3088          4158.02         17397.16
 (Total Pauli Repulsion =
  Delta E^Pauli in BB paper)

Steric Interaction
  Pauli Repulsion (Delta E^Pauli):       6.626227580616890        180.3088          4158.02         17397.16
  Electrostatic Interaction:            -1.232839302887212        -33.5473          -773.62         -3236.82
 (Electrostatic Interaction =
  Delta V_elstat in the BB paper)
                                      --------------------     -----------       ----------      -----------
  Total Steric Interaction:              5.393388277729678        146.7616          3384.40         14160.34
 (Total Steric Interaction =
  Delta E^0 in the BB paper)

Orbital Interactions
  A:                                    -7.080670982816561       -192.6749         -4443.19        -18590.30
                                      --------------------     -----------       ----------      -----------
  Total Orbital Interactions:           -7.080670982816560       -192.6749         -4443.19        -18590.30

Alternative Decomposition Orb.Int.
  Kinetic:                             -14.581049307207874       -396.7705         -9149.75        -38282.54
  Coulomb:                               7.097654402812679        193.1370          4453.85         18634.89
  XC:                                    0.402723921578633         10.9587           252.71          1057.35
                                      --------------------     -----------       ----------      -----------
  Total Orbital Interactions:           -7.080670982816562       -192.6749         -4443.19        -18590.30

  Residu (E=Steric+OrbInt+Res):         -0.000000264296792         -0.0000            -0.00            -0.00

Total Bonding Energy:                   -1.687282969383674        -45.9133         -1058.79         -4429.96


Summary of Bonding Energy (energy terms are taken from the energy decomposition above)
======================================================================================

  Electrostatic Energy:                 -1.232839302887212        -33.5473          -773.62         -3236.82
  Kinetic Energy:                        1.613451030868411         43.9042          1012.46          4236.12
  Coulomb (Steric+OrbInt) Energy:       -0.572383655849959        -15.5754          -359.18         -1502.79
  XC Energy:                            -1.495511041514915        -40.6949          -938.45         -3926.46
                                      --------------------     -----------       ----------      -----------
  Total Bonding Energy:                 -1.687282969383674        -45.9133         -1058.79         -4429.96


Correction terms (incorporated in energies above; only for test purposes):

1. Indication of fit-quality: 1st-order fit-correction used in the energy (hartree):   0.0000082667
2. Electrostatic (Fit correction):   0.0000000000

Scaled ZORA energy correction, not included in bonding energy (hartree):           -0.0000603859
 NOTE: This scaled ZORA energy correction should only be used to compare two calculations
 in which the only difference in the calculation is the electron configuration.
 Then the difference in energy of this term should be added to the difference in energy of
 the two electron configurations.
 This term should not be used otherwise.
 In practice it is useful only for core excitation energy calculations.



 =========================================
 F R A G M E N T   E N E R G Y   T E R M S  ***  (summed over all fragments)  ***
 =========================================
  

The energy terms below are (parts of) the Total Energy of the fragments from which the molecule
 is built.

Exchange and Correlation
  Exchange LDA:                        -21.203355390289797       -576.9727        -13305.31        -55669.40
  Exchange GGA:                         -2.702188186238424        -73.5303         -1695.65         -7094.59
  Correlation LDA:                       0.000000000000000          0.0000             0.00             0.00
  Correlation GGA:                      -0.854785910219172        -23.2599          -536.39         -2244.24
                                      --------------------     -----------       ----------      -----------
  Total XC:                            -24.760329486747391       -673.7628        -15537.34        -65008.24
1



 =======================================================
 S F O   P O P U L A T I O N S ,   M O   A N A L Y S I S
 =======================================================
  
 A Mulliken population analysis is performed on (input-)selected MOs. All populations refer to SFOs.
 BAS populations may have been printed directly after the SCF part.


                                       === A ===


 SFO contributions (%) per orbital
 (multiplication by the orbital occupation yields the SFO Gross Populations)

 Orb.:        6      7      8      9     10     11     12     13     14     15     16     17     18     19
 occup:     2.00   2.00   2.00   2.00   2.00   2.00   2.00   2.00   2.00   2.00   0.00   0.00   0.00   0.00
 CF+SFO     ----   ----   ----   ----   ----   ----   ----   ----   ----   ----   ----   ----   ----   ----
 ------
      2:   38.56   4.78   9.78  -0.02   0.41  -0.05   0.00   0.11  -0.00   1.86   0.00  -0.53   0.00   1.33
      3:   -0.68   0.11   0.47  -0.02   0.04  -0.03  -0.00  -0.10   0.00  -0.70  -0.00  -1.29  -0.00  -1.70
      6:    0.07  10.07   3.62  16.49   0.30   0.88  -0.00   3.55   0.00   6.15   0.00  -0.39  -0.00  -1.58
      7:   -0.04  -1.21  -0.76   0.55   0.46   0.21   0.00   1.56  -0.00   0.40   0.00  -1.86  -0.00  -8.10
      9:    2.70   1.85   6.23  -0.09  15.97   5.46   0.00   7.95  -0.00  -0.00   0.00  -1.21  -0.00  -0.73
     10:   -0.50  -0.88  -2.24  -0.11   1.84   0.99  -0.00   2.22  -0.00   0.12  -0.00  -2.52  -0.00 -12.89
     12:   -0.00   0.00   0.00  -0.00   0.00   0.00  11.68   0.00  36.54   0.00  12.23   0.00  41.11   0.00
     13:    0.00   0.00   0.00  -0.00  -0.00  -0.00  -0.56  -0.00  -0.18   0.00  -0.75  -0.00 -11.47  -0.00
     28:   29.78  21.67   2.24   0.14  -0.06   0.01   0.00   0.01  -0.00   0.08  -0.00   1.65  -0.00  -0.07
     29:   -0.90   0.56   0.05   0.00  -0.26  -0.32  -0.00  -0.11  -0.00  -0.01  -0.00  -9.55   0.00   0.03
     32:    1.42   1.00   0.41   5.40  18.27   4.95   0.00   5.78   0.00   0.32   0.00   0.38   0.00   0.17
     33:   -0.20  -1.20  -0.06   0.21   0.89   1.55   0.00  -0.05  -0.00  -0.09  -0.00  -3.25  -0.00 -11.08
     35:    2.73   0.04   8.37  10.64   6.37   2.81  -0.00   8.17  -0.00   0.32   0.00   0.89  -0.00  -1.00
     36:   -0.34  -0.74  -1.09   0.51   1.39   0.42  -0.00   1.55  -0.00   0.06   0.00  -3.25   0.00  -6.93
     38:    0.00  -0.00   0.00   0.00   0.00   0.00   3.16   0.00  41.04   0.00  36.36   0.00  16.52   0.00
     39:    0.00   0.00  -0.00   0.00  -0.00  -0.00  -0.28   0.00  -0.37  -0.00  -1.47  -0.00   1.51   0.00
     54:    5.35  18.16   8.47   0.31   1.75   0.18   0.00   0.74   0.00  -0.07  -0.00   0.09   0.00   0.54
     55:   -0.33   0.26   0.40   0.01   0.36   0.62   0.00  -0.36   0.00  -0.05  -0.00  -1.84   0.00  -0.94
     58:    5.60   5.64   1.95  13.00   0.05   0.88   0.00   6.07  -0.00   0.58   0.00  -0.35  -0.00  -1.12
     59:   -1.43   0.36  -0.78   2.37  -0.47   1.00  -0.00   1.49   0.00   1.01  -0.00  -0.93  -0.00  -7.80
     61:    1.67   1.65   9.59   3.71   3.30   7.53   0.00   0.16  -0.00   0.58   0.00   0.10  -0.00  -0.26
     62:   -0.13   0.45  -1.62   0.43   0.87   4.72   0.00  -0.03   0.00   0.02  -0.00   3.11  -0.00  -6.25
     64:   -0.00   0.00   0.00   0.00   0.00   0.00  36.09   0.00  -0.05   0.00  26.24   0.00  37.98   0.00
     65:   -0.00  -0.00  -0.00   0.00  -0.00  -0.00  -0.74  -0.00   0.11   0.00  -0.31   0.00  -3.23  -0.00
     68:    0.13   0.09   0.02  -0.01   0.00  -0.01   0.00  -0.00   0.00   2.29   0.00   0.00  -0.00   0.01
     79:    4.71   6.54   8.80  16.03   0.39  -0.12   0.00  20.04  -0.00   0.18   0.00  13.15   0.00  14.80
     80:   -0.54   0.22   0.10  -0.56  -0.09  -0.24  -0.00   0.18  -0.00  -0.01  -0.00  30.49   0.00  14.95
     84:    0.00  -0.00   0.00   0.00   0.00   0.00   0.08   0.00   0.98   0.00   1.09  -0.00   1.45   0.00
     90:    4.14   1.49  18.46   1.94   3.34   3.16   0.00  20.91   0.00   0.65   0.00  -1.73   0.00  34.04
     91:   -0.64  -0.02  -0.06   0.15   0.05  -0.12  -0.00   0.48  -0.00  -0.06  -0.00   1.76   0.00  26.39
     95:    0.00  -0.00   0.00   0.00  -0.00   0.00   0.19   0.00   0.65   0.00   0.26  -0.00   2.23   0.00
    101:    3.90  12.43   0.62   3.00  19.15   6.24   0.00  11.68   0.00   0.64   0.00  26.26   0.00   8.90
    102:   -0.59   0.06   0.03  -0.02   0.28   0.01   0.00  -0.71  -0.00  -0.09   0.00  47.17   0.00  10.11
    103:   -0.07  -0.19  -0.00   0.00   0.09   0.03   0.00  -0.00   0.00   0.00  -0.00  -1.45   0.00   0.22
    104:    0.73   1.10   0.08  -0.05   0.17  -0.05   0.00  -0.23   0.00  -0.02  -0.00   1.22  -0.00   0.06
    106:    0.00  -0.00   0.00  -0.00   0.00   0.00   0.05  -0.00   0.94   0.00   1.59  -0.00   0.26  -0.00
    112:    0.75   5.94  18.14  11.52   0.95   6.95   0.00   1.58   0.00  13.65   0.00  -1.51   0.00  21.01
    113:   -0.42   0.07   0.21  -0.19  -0.02  -0.02  -0.00  -0.09  -0.00  -0.25   0.00   2.34   0.00  22.49
    117:    0.00   0.00   0.00  -0.00   0.00   0.00   0.63   0.00   0.01   0.00   0.92  -0.00   2.95   0.00
    124:    2.00   5.90   2.13   0.86   6.80   8.74   0.00   0.12  -0.00   0.00  -0.00  -0.00  -0.00  -0.00
    128:    0.09   1.08   0.34   3.69  10.51  14.76   0.00   2.23   0.00  51.18   0.00  -0.01   0.00   0.26
    131:   -0.04   0.75   4.17   8.55   5.84  27.05   0.00   3.73   0.00  21.28   0.00   0.41   0.00   0.16
    134:    0.00   0.00   0.00   0.00   0.00   0.00  48.07   0.00  18.40   0.00  23.01   0.00  10.99   0.00
    135:    0.00   0.00   0.00   0.00   0.00   0.00  -0.25  -0.00  -0.09  -0.00  -1.96  -0.00  -2.43  -0.00


 Summation over all MOs, multiplied by occupation: Total SFO Gross Populations in this Irrep
 ===========================================================================================

     2.00    1.13   -0.02    0.00   -0.00    0.85    0.03   -0.01    0.80    0.02   -0.01    0.96
    -0.01   -0.00    0.00    0.02    0.02    0.01    0.01    0.00    0.00    0.00    0.00    0.00
     0.00    0.00    2.00    1.08   -0.02   -0.00   -0.00    0.75    0.01   -0.01    0.79    0.04
    -0.01    0.88   -0.01   -0.00    0.00    0.02    0.01    0.00    0.01    0.00    0.00    0.00
     0.00    0.00    0.00    0.00    2.00    0.98    0.00   -0.00   -0.00    0.72    0.07   -0.01
     0.69    0.09   -0.01    0.72   -0.01   -0.00    0.00    0.05    0.03    0.01    0.01    0.00
     0.00    0.00    0.00    0.00    0.00    0.00    1.13   -0.02   -0.00    0.03    0.03    0.02
     0.00    0.00    0.00    0.00    0.00    1.09    0.00   -0.00    0.02    0.03    0.02    0.00
     0.00    0.00    0.00    0.00    1.15   -0.02   -0.00    0.03    0.02    0.02    0.00    0.00
     0.00    0.00    0.00    1.21   -0.02   -0.00    0.02    0.03    0.01    0.00    0.00    0.00
     0.00    0.00    2.00    1.84   -0.00   -0.00   -0.00    1.73   -0.01   -0.00    1.53    0.00
    -0.00    1.33   -0.01    0.00    0.00    0.02    0.01    0.01    0.01    0.00    0.00    0.00
     0.00    0.00    0.00    0.00



 List of all MOs, ordered by energy, with the most significant SFO gross populations
 ===================================================================================

 Each percentage contribution in the table below corres ponds to the indicated SFO.
 In general, a SFO may be a linear combination of several Fragment Orbitals on the same,
 or on symmetry-related Fragments. Only the first 'member' of such a combination is
 specified here. A full definition of all SFOs is given in an earlier part of the output.
 The numbering of the SFOs in this table does NOT include the Core Orbitals, and starts
 from one for each symmetry representation, as in the SFO definition list earlier.

       E(eV)  Occ       MO           %     SFO (first member)   E(eV)  Occ   Fragment
 -------------------------------------------------------------------------------------

     -20.138  2.00     6 A         38.56%     2 S             -13.802  2.00     1 C
                                   29.78%     2 S             -13.802  2.00     2 C
                                    5.60%     1 P:x            -5.135  0.67     3 C
                                    5.35%     2 S             -13.802  2.00     3 C
                                    4.71%     1 S              -6.484  1.00     4 H
                                    4.14%     1 S              -6.484  1.00     5 H
                                    3.90%     1 S              -6.484  1.00     6 H
                                    2.73%     1 P:y            -5.135  0.67     2 C
                                    2.70%     1 P:y            -5.135  0.67     1 C
                                    2.00%     2 S             -24.136  2.00     8 O
                                    1.67%     1 P:y            -5.135  0.67     3 C
                                   -1.43%     2 P:x             4.559  0.00     3 C
                                    1.42%     1 P:x            -5.135  0.67     2 C
     -16.179  2.00     7 A         21.67%     2 S             -13.802  2.00     2 C
                                   18.16%     2 S             -13.802  2.00     3 C
                                   12.43%     1 S              -6.484  1.00     6 H
                                   10.07%     1 P:x            -5.135  0.67     1 C
                                    6.54%     1 S              -6.484  1.00     4 H
                                    5.94%     1 S              -6.484  1.00     7 H
                                    5.90%     2 S             -24.136  2.00     8 O
                                    5.64%     1 P:x            -5.135  0.67     3 C
                                    4.78%     2 S             -13.802  2.00     1 C
                                    1.85%     1 P:y            -5.135  0.67     1 C
                                    1.65%     1 P:y            -5.135  0.67     3 C
                                    1.49%     1 S              -6.484  1.00     5 H
                                   -1.21%     2 P:x             4.559  0.00     1 C
                                   -1.20%     2 P:x             4.559  0.00     2 C
                                    1.10%     1 P:x            11.162  0.00     6 H
                                    1.08%     1 P:x            -8.949  1.33     8 O
     -14.160  2.00     8 A         18.46%     1 S              -6.484  1.00     5 H
                                   18.14%     1 S              -6.484  1.00     7 H
                                    9.78%     2 S             -13.802  2.00     1 C
                                    9.59%     1 P:y            -5.135  0.67     3 C
                                    8.80%     1 S              -6.484  1.00     4 H
                                    8.47%     2 S             -13.802  2.00     3 C
[...]
    6       2          4       0.25219177D-03
    6       2          5       0.63263738D-04
    6       2          6       0.83431948D-05
*** CPKS converged.
----------------------------------------------
    6       3          1       0.52333287D-02
    6       3          2       0.50291265D-03
    6       3          3       0.16061568D-03
    6       3          4       0.13741023D-04
    6       3          5       0.30046792D-05
*** CPKS converged.
----------------------------------------------

====================  end of solving CPKS equations  ====================

==========================
###### NUCLEUS:     8  H  
==========================

====================  solving CPKS equations  ====================

NUCLEUS  COORD.    ITERATION   ACCURACY
-------  ------    ---------   --------
    8       1          1       0.13910024D-01
    8       1          2       0.33705521D-02
    8       1          3       0.18705538D-02
    8       1          4       0.34137557D-03
    8       1          5       0.14870697D-03
    8       1          6       0.10965834D-04
    8       1          7       0.22146419D-05
*** CPKS converged.
----------------------------------------------
    8       2          1       0.38017870D-01
    8       2          2       0.52356205D-02
    8       2          3       0.17333138D-02
    8       2          4       0.59735391D-03
    8       2          5       0.18102732D-03
    8       2          6       0.23182114D-04
    8       2          7       0.45683576D-05
*** CPKS converged.
----------------------------------------------
    8       3          1       0.12361980D-01
    8       3          2       0.13156315D-02
    8       3          3       0.63305590D-04
    8       3          4       0.10818597D-04
    8       3          5       0.87614782D-06
*** CPKS converged.
----------------------------------------------

====================  end of solving CPKS equations  ====================

==========================
###### NUCLEUS:     7  O  
==========================

====================  solving CPKS equations  ====================

NUCLEUS  COORD.    ITERATION   ACCURACY
-------  ------    ---------   --------
    7       1          1       0.57158215D-01
    7       1          2       0.86438839D-02
    7       1          3       0.15677401D-02
    7       1          4       0.12152326D-02
    7       1          5       0.14820363D-03
    7       1          6       0.34437876D-04
    7       1          7       0.48770516D-05
*** CPKS converged.
----------------------------------------------
    7       2          1       0.83566291D-01
    7       2          2       0.94345182D-02
    7       2          3       0.27910039D-02
    7       2          4       0.14880021D-02
    7       2          5       0.19153781D-03
    7       2          6       0.55582343D-04
    7       2          7       0.70773943D-05
*** CPKS converged.
----------------------------------------------
    7       3          1       0.12147746D-01
    7       3          2       0.94596735D-03
    7       3          3       0.99294263D-04
    7       3          4       0.22550621D-04
    7       3          5       0.31348913D-05
*** CPKS converged.
----------------------------------------------

====================  end of solving CPKS equations  ====================


====================================================================
*** DONE CALCULATING ANALYTICAL SECOND DERIVATIVES OF THE ENERGY ***
====================================================================

 Mulliken charges used for AMS results%charges...
Scanning modes in range provided by user.


    =====================
     CALCULATION RESULTS
    =====================

Energy (hartree)            -1.68728297

Gradients (hartree/bohr)
  Index   Atom            d/dx            d/dy            d/dz
      1      C    0.0000003860   -0.0000016221   -0.0000000000
      2      C   -0.0000009761    0.0000001406    0.0000000000
      3      H   -0.0000021230   -0.0000016573   -0.0000000000
      4      C   -0.0000018532    0.0000010006   -0.0000000000
      5      H    0.0000028524   -0.0000012040   -0.0000000000
      6      H   -0.0000014198   -0.0000022111    0.0000000000
      7      O    0.0000015405    0.0000011635    0.0000000000
      8      H    0.0000015931    0.0000043898    0.0000000000

 Symmetry: C(S)

 -----------------------
 Normal Mode Frequencies
 -----------------------

 Index   Frequency (cm-1)   Intensity (km/mol)   Irrep
     7           160.6734               3.9093     A''
     8           312.8345               8.2735      A'
     9           558.0189               3.6477      A'
    10           589.1497               9.6411     A''
    11           897.9847              21.8378      A'
    12           973.2974              31.4030     A''
    13           995.4764               6.3947     A''
    14          1012.6439              12.9254     A''
    15          1142.2350              38.3169      A'
    16          1267.8853               2.3525      A'
    17          1352.6263               6.0782      A'
    18          1418.6993              10.0770      A'
    19          1630.3965               2.4698      A'
    20          1719.1255             237.0355      A'
    21          2814.4798             108.9016      A'
    22          3092.5598               5.4907      A'
    23          3127.5385               2.3540      A'
    24          3187.0205               5.9050      A'

 Zero-point energy (Hartree):     0.0598

 ------------
 Normal Modes
 ------------

 Number of removed rigid normal modes: 6
 
 Mode:     7      Frequency (cm-1):      160.6734     Intensity (km/mol):        3.9093     Irrep: A''
 Index  Atom      ---- Displacements (x/y/z) ----
     1     C       0.000000   0.000000   0.236987
     2     C      -0.000000  -0.000000  -0.192305
     3     H      -0.000000   0.000000  -0.364047
     4     C       0.000000   0.000000   0.242635
     5     H       0.000000   0.000000   0.336046
     6     H      -0.000000  -0.000000  -0.428714
     7     O      -0.000000  -0.000000  -0.225007
     8     H       0.000000  -0.000000   0.606715
 
 Mode:     8      Frequency (cm-1):      312.8345     Intensity (km/mol):        8.2735     Irrep: A'
 Index  Atom      ---- Displacements (x/y/z) ----
     1     C      -0.166194  -0.157747   0.000000
     2     C       0.175244   0.039464  -0.000000
     3     H       0.554356  -0.168191  -0.000000
     4     C      -0.160500  -0.066181   0.000000
     5     H      -0.324779  -0.070577   0.000000
     6     H       0.192297   0.468490  -0.000000
     7     O       0.111668   0.120577  -0.000000
     8     H      -0.390827   0.053018   0.000000
 
 Mode:     9      Frequency (cm-1):      558.0189     Intensity (km/mol):        3.6477     Irrep: A'
 Index  Atom      ---- Displacements (x/y/z) ----
     1     C      -0.153962   0.152686   0.000000
     2     C      -0.219730   0.186946  -0.000000
     3     H      -0.435414   0.307729   0.000000
     4     C       0.025218  -0.252035  -0.000000
     5     H      -0.454090   0.301434  -0.000000
     6     H      -0.233783  -0.031070  -0.000000
     7     O       0.334829  -0.088488   0.000000
     8     H      -0.041478  -0.216730  -0.000000
 
 Mode:    10      Frequency (cm-1):      589.1497     Intensity (km/mol):        9.6411     Irrep: A''
 Index  Atom      ---- Displacements (x/y/z) ----
     1     C       0.000000  -0.000000   0.119752
     2     C       0.000000  -0.000000  -0.014564
     3     H       0.000000  -0.000000   0.503068
     4     C       0.000000   0.000000  -0.027337
     5     H       0.000000  -0.000000  -0.341891
     6     H       0.000000   0.000000  -0.645197
     7     O      -0.000000   0.000000   0.000161
     8     H       0.000000   0.000000  -0.445481
 
 Mode:    11      Frequency (cm-1):      897.9847     Intensity (km/mol):       21.8378     Irrep: A'
 Index  Atom      ---- Displacements (x/y/z) ----
     1     C       0.093349   0.018168   0.000000
     2     C       0.133665   0.008637  -0.000000
     3     H      -0.435656   0.310097   0.000000
     4     C      -0.143295  -0.060148   0.000000
     5     H      -0.212679   0.186541  -0.000000
     6     H       0.108907  -0.701858   0.000000
     7     O      -0.011356   0.037442  -0.000000
     8     H      -0.277160   0.007991  -0.000000
 
 Mode:    12      Frequency (cm-1):      973.2974     Intensity (km/mol):       31.4030     Irrep: A''
 Index  Atom      ---- Displacements (x/y/z) ----
     1     C      -0.000000  -0.000000   0.018994
     2     C      -0.000000  -0.000000  -0.159068
     3     H       0.000000  -0.000000   0.699753
     4     C       0.000000   0.000000   0.047950
     5     H       0.000000  -0.000000   0.116516
     6     H      -0.000000   0.000000   0.662743
     7     O       0.000000  -0.000000  -0.013273
     8     H       0.000000   0.000000  -0.171469
 
 Mode:    13      Frequency (cm-1):      995.4764     Intensity (km/mol):        6.3947     Irrep: A''
 Index  Atom      ---- Displacements (x/y/z) ----
     1     C       0.000000   0.000000  -0.156003
     2     C       0.000000  -0.000000   0.058924
     3     H      -0.000000   0.000000   0.088268
     4     C      -0.000000  -0.000000   0.165329
     5     H      -0.000000   0.000000   0.676709
     6     H       0.000000  -0.000000  -0.306275
     7     O      -0.000000   0.000000  -0.041080
     8     H      -0.000000   0.000000  -0.619386
 
 Mode:    14      Frequency (cm-1):     1012.6439     Intensity (km/mol):       12.9254     Irrep: A''
 Index  Atom      ---- Displacements (x/y/z) ----
     1     C      -0.000000   0.000000   0.017097
     2     C      -0.000000   0.000000   0.002190
     3     H       0.000000  -0.000000  -0.445231
     4     C       0.000000   0.000000   0.126459
     5     H       0.000000  -0.000000  -0.630352
     6     H      -0.000000   0.000000   0.326131
     7     O       0.000000  -0.000000  -0.028724
     8     H       0.000000   0.000000  -0.530047
 
 Mode:    15      Frequency (cm-1):     1142.2350     Intensity (km/mol):       38.3169     Irrep: A'
 Index  Atom      ---- Displacements (x/y/z) ----
     1     C      -0.166582  -0.108041  -0.000000
     2     C       0.075179  -0.000560   0.000000
     3     H      -0.229899   0.159596  -0.000000
     4     C       0.199178   0.109499   0.000000
     5     H      -0.782975   0.215651   0.000000
     6     H       0.059275  -0.301964  -0.000000
     7     O      -0.036292  -0.011125  -0.000000
     8     H       0.246321   0.092586  -0.000000
 
 Mode:    16      Frequency (cm-1):     1267.8853     Intensity (km/mol):        2.3525     Irrep: A'
 Index  Atom      ---- Displacements (x/y/z) ----
     1     C       0.105467   0.099512   0.000000
     2     C      -0.048791  -0.123382   0.000000
     3     H       0.362151  -0.351572  -0.000000
     4     C      -0.009086  -0.013860  -0.000000
     5     H      -0.643596   0.513179  -0.000000
     6     H      -0.027881   0.108555  -0.000000
     7     O      -0.008790   0.008343   0.000000
     8     H      -0.117829   0.046679   0.000000
 
 Mode:    17      Frequency (cm-1):     1352.6263     Intensity (km/mol):        6.0782     Irrep: A'
 Index  Atom      ---- Displacements (x/y/z) ----
     1     C      -0.061074   0.053259  -0.000000
     2     C       0.021277  -0.020656   0.000000
     3     H       0.271729  -0.176002   0.000000
     4     C      -0.059275  -0.029840   0.000000
     5     H       0.052840  -0.001677   0.000000
     6     H       0.021472  -0.368018  -0.000000
     7     O       0.005898   0.060022  -0.000000
     8     H       0.739992  -0.439793  -0.000000
 
 Mode:    18      Frequency (cm-1):     1418.6993     Intensity (km/mol):       10.0770     Irrep: A'
 Index  Atom      ---- Displacements (x/y/z) ----
     1     C      -0.082168   0.067380   0.000000
     2     C      -0.002109   0.032641   0.000000
     3     H       0.488734  -0.252180   0.000000
     4     C       0.044127   0.026222  -0.000000
     5     H       0.200890  -0.081736   0.000000
     6     H      -0.008916  -0.624676  -0.000000
     7     O       0.012981  -0.051611  -0.000000
     8     H      -0.408665   0.274540   0.000000
 
 Mode:    19      Frequency (cm-1):     1630.3965     Intensity (km/mol):        2.4698     Irrep: A'
 Index  Atom      ---- Displacements (x/y/z) ----
     1     C       0.237329  -0.298938   0.000000
     2     C      -0.195403   0.310050   0.000000
     3     H       0.556842  -0.069519   0.000000
     4     C       0.002274  -0.022068   0.000000
     5     H      -0.360506  -0.030316   0.000000
     6     H      -0.255968  -0.418344  -0.000000
     7     O      -0.038194   0.047181  -0.000000
     8     H       0.139528  -0.100162  -0.000000
 
 Mode:    20      Frequency (cm-1):     1719.1255     Intensity (km/mol):      237.0355     Irrep: A'
 Index  Atom      ---- Displacements (x/y/z) ----
     1     C      -0.049828   0.069933   0.000000
     2     C      -0.001127  -0.013094  -0.000000
     3     H      -0.024209   0.012438   0.000000
     4     C       0.410304  -0.559187  -0.000000
     5     H       0.245960  -0.112967  -0.000000
     6     H      -0.001362   0.004619  -0.000000
     7     O      -0.253645   0.384702  -0.000000
     8     H      -0.473566  -0.028222   0.000000
 
 Mode:    21      Frequency (cm-1):     2814.4798     Intensity (km/mol):      108.9016     Irrep: A'
 Index  Atom      ---- Displacements (x/y/z) ----
     1     C       0.002506  -0.001055   0.000000
     2     C      -0.000490   0.001115  -0.000000
     3     H      -0.010835  -0.006114  -0.000000
     4     C      -0.042244  -0.070836  -0.000000
     5     H      -0.005259  -0.010185  -0.000000
     6     H       0.003933   0.006562  -0.000000
     7     O       0.001812  -0.001901  -0.000000
     8     H       0.462406   0.882620   0.000000
 
 Mode:    22      Frequency (cm-1):     3092.5598     Intensity (km/mol):        5.4907     Irrep: A'
 Index  Atom      ---- Displacements (x/y/z) ----
     1     C       0.008025   0.003057   0.000000
     2     C      -0.021539   0.063581   0.000000
     3     H      -0.388412  -0.686547   0.000000
     4     C       0.001598   0.000296  -0.000000
     5     H      -0.054418  -0.100447   0.000000
     6     H       0.599970  -0.005946  -0.000000
     7     O      -0.000458   0.000348  -0.000000
     8     H      -0.007999  -0.009552  -0.000000
 
 Mode:    23      Frequency (cm-1):     3127.5385     Intensity (km/mol):        2.3540     Irrep: A'
 Index  Atom      ---- Displacements (x/y/z) ----
     1     C      -0.037301  -0.077184   0.000000
     2     C       0.008762   0.018113  -0.000000
     3     H      -0.086877  -0.155153  -0.000000
     4     C       0.002018  -0.002135  -0.000000
     5     H       0.462420   0.862315  -0.000000
     6     H      -0.055828   0.002049   0.000000
     7     O      -0.000487   0.000734   0.000000
     8     H       0.003796   0.007908  -0.000000
 
 Mode:    24      Frequency (cm-1):     3187.0205     Intensity (km/mol):        5.9050     Irrep: A'
 Index  Atom      ---- Displacements (x/y/z) ----
     1     C       0.005839   0.014012  -0.000000
     2     C       0.090304   0.037506  -0.000000
     3     H      -0.270019  -0.508855  -0.000000
     4     C      -0.000224   0.000214   0.000000
     5     H      -0.070886  -0.134685  -0.000000
     6     H      -0.796371   0.030969   0.000000
     7     O       0.000013  -0.000040   0.000000
     8     H      -0.005027  -0.002753   0.000000

PES point character: Geometry corresponds to a local minimum on the PES.




 ============================
 Statistical Thermal Analysis  ***  ideal gas assumed  ***
 ============================
  
 Pressure:                  1.000000 atm.
 Temperature:             298.150000 K



 Moments of Inertia [amu*bohr^2] and principal axis
 ==================================================

          37.4977        391.9993        429.4970
 ------------------------------------------------
          -0.8262          0.5634          0.0000
           0.5634          0.8262          0.0000
           0.0000          0.0000          1.0000


 The rotational contribution to the molecular entropy includes
 a term, dependent on the symmetry number sigma. The results 
 reported below were computed using sigma = 1, determined from
 the point group symmetry of the input geometry (C(S)). 
 If this is not the correct symmetry, try symmetrizing the molecule before
 running the calculation (note: linear molecules should be aligned along one
 of the Cartesian axes).
 Contributions from frequencies below 20 1/cm are not included in vibrational sums.
 Their contributions, if any, are reported separately.


     Temp                                                        Transl      Rotat     Vibrat     Total
     ----                                                        ------      -----     ------     -----

     298.15   Entropy (cal/mol-K):                               37.991     23.361      5.448     66.800
              Nuclear Internal Energy (kcal/mol):                 0.889      0.889     38.536     40.313
              Constant Volume Heat Capacity (cal/mol-K):          2.981      2.981      8.089     14.050
          (c) Constant Volume Heat Capacity (cal/mol-K):          2.981      2.981      7.965     13.927

       Summary of energy terms
                                                   hartree              eV         kcal/mol           kJ/mol
                                      --------------------     -----------       ----------      -----------
      Energy from Engine:               -1.687282969383674        -45.9133         -1058.79         -4429.96
      Nuclear Internal Energy:           0.064242851017421          1.7481            40.31           168.67
  (c) Nuclear Internal Energy:           0.064165313304179          1.7460            40.26           168.47
      Internal Energy U:                -1.623040118366253        -44.1652         -1018.47         -4261.29
      pV/n = RT:                         0.000944186013486          0.0257             0.59             2.48
      Enthalpy H:                       -1.622095932352767        -44.1395         -1017.88         -4258.81
      -T*S:                             -0.031739008388084         -0.8637           -19.92           -83.33
  (c) -T*S:                             -0.031731718118950         -0.8635           -19.91           -83.31
      Gibbs free energy:                -1.653834940740851        -45.0031         -1037.80         -4342.14
 
 
 
  (c) The properties marked with this symbol have been corrected using 'low vibrational frequency free rotor
      interpolation corrections'. For those terms all positive frequencies are used (also ones below 20 1/cm),
      but the contribution to the partition function of small vibrational frequencies is modified as described
      in the following paper:
      S. Grimme, 'Supramolecular Binding Thermodynamics by Dispersion-Corrected Density Functional Theory'
      (Chem. Eur. J. 2012, 18, 9955-9964)
      Configuration: Dampener Frequency          :   100.000 1/cm
                     Dampener Alpha              :     4.000
                     Averaging Moment of Inertia : 1.000E-44 kg m2

--------------
Atomic charges
--------------
  Index   Atom    Charge
      1      C    0.1914
      2      C    0.4640
      3      H   -0.1934
      4      C    0.6419
      5      H   -0.1605
      6      H   -0.2088
      7      O   -0.4808
      8      H   -0.2538


Dipole moment vector    (Debye):     2.31648423   -2.27850949    0.00000000
              magnitude (Debye):     3.24926217


Final PES point is a local minimum. Geometry optimization successful!


AMS application finished. Exiting.
NORMAL TERMINATION
     Total cpu time:     692.81
  Total system time:       7.03
 Total elapsed time:     705.65
