

 Parallel Execution: Process Information
 ==============================================================================
 Rank   Node Name                              NodeID   MyNodeRank  NodeMaster
    0   node110                                   0          0          0
    1   node110                                   0          1         -1
    2   node110                                   0          2         -1
    3   node110                                   0          3         -1
    4   node110                                   0          4         -1
    5   node110                                   0          5         -1
    6   node110                                   0          6         -1
    7   node110                                   0          7         -1
    8   node110                                   0          8         -1
    9   node110                                   0          9         -1
   10   node110                                   0         10         -1
   11   node110                                   0         11         -1
   12   node110                                   0         12         -1
   13   node110                                   0         13         -1
   14   node110                                   0         14         -1
   15   node110                                   0         15         -1
 ==============================================================================


May use up to 122928MB of RAM as shared memory on node 0

 *******************************************************************************
 *                                                                             *
 *  --------------------------------                                           *
 *   Amsterdam Modeling Suite (AMS)              2021.102                      *
 *  --------------------------------                                           *
 *                                               r95042 2021-06-07             *
 *                                                                             *
 *                                                                             *
 *                              =================                              *
 *                              |               |                              *
 *                              |     A M S     |                              *
 *                              |               |                              *
 *                              =================                              *
 *                                                                             *
 *                                                                             *
 *   Online information and documentation:  https://www.scm.com/support/       *
 *   E-mail:  support@scm.com   info@scm.com                                   *
 *                                                                             *
 *   Scientific publications using AMS results must be properly referenced     *
 *   See the User Manuals (or the web site) for recommended citations          *
 *   The terms and conditions of the End User License Agreement apply to       *
 *   the use of AMS, https://www.scm.com/license-terms/                        *
 *                                                                             *
 **********************  x86_64_linux_intel / intelmpi  ************************
 
 Licensed to: VU/FEW (+ SARA) / ALGEMEEN / Amsterdam / THE NETHERLANDS
 SCM User ID: u7668
  
 AMS 2021.102  RunTime: Jan18-2022 15:53:31  ShM Nodes: 1  Procs: 16

 AMS jobname: ams
 AMS jobid  : 1047270668

 Start   directory: /scistor/tc/yhk800/master/calculations/1.GO_P_CH2CCHO_rad/
 Results directory: /scistor/tc/yhk800/master/calculations/1.GO_P_CH2CCHO_rad/ams.results/
 Scratch directory: /scratch/3144/amstmp_ams_kid0.1047270668/


 Communication costs MPI_COMM_WORLD:      2.126 usec per message,   0.0072 usec per 8-byte item
 Communication costs for intra-node:      2.138 usec per message,   0.0072 usec per 8-byte item

 RNG seed: 6820676 166161206 -1084019166 -606556654 -1536920575 1324504392 1473605534 -1546245237



                     *************************************************************************
                     *  ADF 2021.102  RunTime: Jan18-2022 15:53:32  ShM Nodes: 1  Procs: 16  *
                     *************************************************************************
  
       ***************************
       *  GEOMETRY OPTIMIZATION  *
       ***************************

Optimization Method                    Quasi Newton
Optimization Coordinates               Delocalized Coordinates
Optimize lattice                       F
 
 ------------------------------------------------------
 Convergence criteria (Hartree,Angstrom)
 ------------------------------------------------------
 Maximum gradient               0.001000000000
 Maximum rms gradient           0.000666666667
 Maximum step allowed           0.010000000000
 Maximum rms step allowed       0.006666666667
 Maximum energy change allowe   0.000120000000
 Maximum stress energy allowe   0.000500000000
 
Initial model Hessian                  Automatic Hessian
 
------------------------------------
Quasi-Newton Optimizer Parameters
------------------------------------
Hessian Update Method                  BFGS
Maximum number of steps                  250
First GDIIS cycle                          0
Maximum GDIIS vectors                      0
Trust radius (bohr)                        0.200000
Trust radius varies                        T
Constraints converged at all steps         T
Use projector                              T
 
 Rigid motions settings for: old optimizer
 Atomic rotations (x,y,z):     T T T
 Atomic translations (x,y,z):  T T T
 Tolerance:                   1.000000000000000E-006
 
--------
Geometry
--------
Formula: C4H7O
Atoms
  Index Symbol   x (angstrom)   y (angstrom)   z (angstrom)
      1      C     0.07237900     0.45849000     0.14701600
      2      C     0.88136400    -0.76962700     0.34543400
      3      H     0.32008500    -1.64937000     0.00848400
      4      C    -1.24453700     0.48140500    -0.41210600
      5      H     0.49150900     1.42171500     0.44020400
      6      H     1.77552000    -0.70604200    -0.29739300
      7      O    -1.90880100     1.51397000    -0.58363800
      8      H    -1.66762000    -0.50873100    -0.70006500
      9      C     1.35798400    -0.97156700     1.79839200
     10      H     1.97578900    -1.87216200     1.87186400
     11      H     0.50807500    -1.08370100     2.47848500
     12      H     1.95613700    -0.12156000     2.14194000
 
Total System Charge             0.00000
 
 
----------------
ADF Engine Input
----------------
 
 BASIS
 type TZ2P
 core none
 END
 SYMMETRY NOSYM
 SCF
 ITERATIONS 99
 Converge 1.0e-6
 END
 XC
 GGA OLYP
 END
 NumericalQuality VERYGOOD
 Unrestricted Yes
 SpinPolarization 1.0
 

 Title: *** (NO TITLE) ***

 Using automatic Hessian for delocalized coordinates.
 *** GOStep1 ***

 Energy gradients wrt nuclear displacements
 ==========================================

     Atom      Cartesian (a.u./angstrom)
                 X         Y         Z
 ----------------------------------------
     1 C     0.000004  0.000006  0.000000
     2 C    -0.000011 -0.000005 -0.000000
     3 H    -0.000006  0.000001 -0.000003
     4 C     0.000002  0.000010  0.000006
     5 H     0.000010 -0.000001  0.000001
     6 H    -0.000005 -0.000007 -0.000003
     7 O     0.000007  0.000015  0.000008
     8 H    -0.000005  0.000013  0.000005
     9 C     0.000001 -0.000005 -0.000005
    10 H    -0.000005 -0.000011 -0.000006
    11 H     0.000001 -0.000003 -0.000000
    12 H     0.000005 -0.000011 -0.000003
 ----------------------------------------
 Mulliken charges used for AMS results%charges...
 
---------------------------------------------------------
Geometry Convergence after Step   1       ** CONVERGED **
---------------------------------------------------------
current energy                               -2.38373078 Hartree
energy change                      -2.38373078     0.00012000    F
constrained gradient max            0.00000722     0.00100000    T
constrained gradient rms            0.00000170     0.00066667    T
gradient max                        0.00000722
gradient rms                        0.00000170
cart. step max                      0.00001005     0.01000000    T
cart. step rms                      0.00000478     0.00666667    T
 
Geometry optimization converged

Optimized geometry:
 
--------
Geometry
--------
Formula: C4H7O
Atoms
  Index Symbol   x (angstrom)   y (angstrom)   z (angstrom)
      1      C     0.07237900     0.45849000     0.14701600
      2      C     0.88136400    -0.76962700     0.34543400
      3      H     0.32008500    -1.64937000     0.00848400
      4      C    -1.24453700     0.48140500    -0.41210600
      5      H     0.49150900     1.42171500     0.44020400
      6      H     1.77552000    -0.70604200    -0.29739300
      7      O    -1.90880100     1.51397000    -0.58363800
      8      H    -1.66762000    -0.50873100    -0.70006500
      9      C     1.35798400    -0.97156700     1.79839200
     10      H     1.97578900    -1.87216200     1.87186400
     11      H     0.50807500    -1.08370100     2.47848500
     12      H     1.95613700    -0.12156000     2.14194000
 
Total System Charge             0.00000
 
Performing a single point calculation on the final geometry ...

 *** adf ***



 ===========================
 A T T A C H E D   F I L E S
 ===========================
  
 Restart/scratch/3144/amstmp_ams_kid0.1047270668/GOStep1.rkf*** GOStep1 ***



 ===============================
 M O D E L   P A R A M E T E R S
 ===============================
  
 DENSITY FUNCTIONAL POTENTIAL (scf)
    LDA:                               Exchange only                           == Not Default ==
    Gradient Corrections:              OPTX LYP                                == Not Default ==

 SPIN  (restricted / unrestr.)
    Molecule:                          UNrestricted                            == Not Default ==
    Fragments:                         Restricted                               

 OTHER ASPECTS
    Relativistic Corrections:          scalar (ZORA,MAPA)                       

    Nuclear Charge Density Model:      Point Charge Nuclei                      
    Core Treatment:                    Frozen Orbital(s)                        

    Hyperfine or Zeeman Interaction:   ---                                      



 ===============
 G E O M E T R Y  ***  3D  Molecule  ***
 ===============
  

 ATOMS
 =====                            X Y Z                    CHARGE
                                (Angstrom)             Nucl     +Core       At.Mass
                       --------------------------    ----------------       -------
    1  C               0.0724    0.4585    0.1470      6.00      6.00       12.0000
    2  C               0.8814   -0.7696    0.3454      6.00      6.00       12.0000
    3  H               0.3201   -1.6494    0.0085      1.00      1.00        1.0078
    4  C              -1.2445    0.4814   -0.4121      6.00      6.00       12.0000
    5  H               0.4915    1.4217    0.4402      1.00      1.00        1.0078
    6  H               1.7755   -0.7060   -0.2974      1.00      1.00        1.0078
    7  O              -1.9088    1.5140   -0.5836      8.00      8.00       15.9949
    8  H              -1.6676   -0.5087   -0.7001      1.00      1.00        1.0078
    9  C               1.3580   -0.9716    1.7984      6.00      6.00       12.0000
   10  H               1.9758   -1.8722    1.8719      1.00      1.00        1.0078
   11  H               0.5081   -1.0837    2.4785      1.00      1.00        1.0078
   12  H               1.9561   -0.1216    2.1419      1.00      1.00        1.0078


 FRAGMENTS
 =========                                     Atoms in this Fragment     Cart. coord.s (Angstrom)
                                               -------------------------------------------------------
    1  C                                                 1  C            0.0724    0.4585    0.1470
    2  C                                                 2  C            0.8814   -0.7696    0.3454
    3  C                                                 4  C           -1.2445    0.4814   -0.4121
    4  C                                                 9  C            1.3580   -0.9716    1.7984
    5  H                                                 3  H            0.3201   -1.6494    0.0085
    6  H                                                 5  H            0.4915    1.4217    0.4402
    7  H                                                 6  H            1.7755   -0.7060   -0.2974
    8  H                                                 8  H           -1.6676   -0.5087   -0.7001
    9  H                                                10  H            1.9758   -1.8722    1.8719
   10  H                                                11  H            0.5081   -1.0837    2.4785
   11  H                                                12  H            1.9561   -0.1216    2.1419
   12  O                                                 7  O           -1.9088    1.5140   -0.5836


 Interatomic Distance Matrix (Angstrom)
 --------------------------------------

   1)     0.000
   2)     1.484   0.000
   3)     2.127   1.097   0.000
   4)     1.431   2.580   2.677   0.000
   5)     1.091   2.228   3.106   2.150   0.000
   6)     2.111   1.103   1.761   3.247   2.592   0.000
   7)     2.361   3.723   3.915   1.240   2.611   4.311   0.000
   8)     2.163   2.767   2.399   1.115   3.113   3.472   2.040   0.000
   9)     2.535   1.542   2.177   3.711   2.885   2.153   4.746   3.951   0.000
  10)     3.468   2.178   2.503   4.596   3.886   2.471   5.708   4.663   1.095   0.000
  11)     2.829   2.188   2.541   3.725   3.230   3.075   4.687   3.895   1.094   1.773
          0.000
  12)     2.804   2.191   3.092   4.139   2.724   2.515   5.004   4.622   1.095   1.771
          1.771   0.000

 Min. Distance =    1.0906
 Max. Distance =    5.7084



 =====================================
 S Y M M E T R Y ,   E L E C T R O N S
 =====================================
  
 Symmetry: NOSYM

 Irreducible Representations, including subspecies
 -------------------------------------------------
 A


 Configuration of Valence Electrons
 ==================================
 ( determined in the SCF procedure )

 Total:   20 (Spin-A)  + 19 (Spin-B)

 Net Charge: 0 (Nuclei minus Electrons)
 Spin polar: 1 (Spin_A minus Spin_B electrons)

 Aufbau principle for MO occupations will be applied through SCF cycle no.      49
 Thereafter, the program will assign electrons to MOs that are spatially
 similar to the occupied MOs in a "reference" cycle ("KeepOrbitals").
 The reference cycle is always the PREVIOUS cycle: it will evolve with
 the SCF procedure.
1
 ***************************************************************************************************



                                      ****************************************
                                      *  B U I L D : (Fragments, Functions)  *
                                      ****************************************
  



 =======
 S F O s  ***  (Symmetrized Fragment Orbitals)  ***
 =======
  
 SFOs are linear combinations of (valence) Fragment Orbitals (FOs), such that the SFOs transform as the
 irreducible representations of the (molecular) symmetry group. Each SFO is therefore characterized by
 an irrep of the molecule and by a few (or only one) generating FOs.
 The SFOs constitute a symmetry-adapted basis for the Fock matrix. The MO eigenvector coefficients in
 this basis provide a direct interpretation of the MOs in terms of Frontier Orbital Theory.

 The SFOs are combined with auxiliary Core Functions (CFs) to ensure orthogonalization on the (frozen)
 Core Orbitals (COs). The Core-orthogonalized SFOs (CSFOs) constitute the true Fock basis.

 The FOs, and hence also the (C)SFOs are combinations of the elementary basis functions (BAS). The basis
 functions that participate in the description of the SFOs depend on the irrep. The indices of the
 involved functions are printed below for each irrep.
 (The complete list of primitive basis functions is printed in another section)

 Total nr. of (C)SFOs (summation over all irreps) :   207

 NOTE: a (C)SFO that is defined as a combination of more than one FO is usually NOT normalized.



                                       === A ===
 Nr. of SFOs :  207
 Cartesian basis functions that participate in this irrep (total number =   234) :
      1     2     3     4     5     6     9    12     7    10
     13     8    11    14    15    16    17    18    19    20
     21    22    23    24    25    26    27    28    29    30
     31    32    33    34    35    36    39    42    37    40
     43    38    41    44    45    46    47    48    49    50
     51    52    53    54    55    56    57    58    59    60
     61    62    63    64    65    66    69    72    67    70
     73    68    71    74    75    76    77    78    79    80
     81    82    83    84    85    86    87    88    89    90
     91    92    93    94    95    96    99   102    97   100
    103    98   101   104   105   106   107   108   109   110
    111   112   113   114   115   116   117   118   119   120
    121   122   123   124   125   126   127   128   129   130
    131   132   133   134   135   136   137   138   139   140
    141   142   143   144   145   146   147   148   149   150
    151   152   153   154   155   156   157   158   159   160
    161   162   163   164   165   166   167   168   169   170
    171   172   173   174   175   176   177   178   179   180
    181   182   183   184   185   186   187   188   189   190
    191   192   193   194   195   196   197   198   199   200
    201   202   203   204   205   206   207   208   209   210
    213   216   211   214   217   212   215   218   219   220
    221   222   223   224   225   226   227   228   229   230
    231   232   233   234

    SFO  (index         Fragment          Generating    Expansion in Fragment Orbitals
  indx  incl.CFs)   Occup   Orb.Energy   FragmentType  Coeff.   Orbital     on Fragment
 --------------------------------------------------------------------------------------
     1       1      2.000     -10.064 au  C             1.00      1 S               1
                        (    -273.865 eV)
     2       2      2.000      -0.507 au  C             1.00      2 S               1
                        (     -13.802 eV)
     3       3       --         0.384 au  C             1.00      3 S               1
                        (      10.456 eV)
     4       4       --         5.458 au  C             1.00      4 S               1
                        (     148.511 eV)
     5       5       --        49.970 au  C             1.00      5 S               1
                        (    1359.766 eV)
     6       6      0.667      -0.189 au  C             1.00      1 P:x             1
                        (      -5.135 eV)
     7       7       --         0.168 au  C             1.00      2 P:x             1
                        (       4.559 eV)
     8       8       --         2.056 au  C             1.00      3 P:x             1
                        (      55.959 eV)
     9       9      0.667      -0.189 au  C             1.00      1 P:y             1
                        (      -5.135 eV)
    10      10       --         0.168 au  C             1.00      2 P:y             1
                        (       4.559 eV)
    11      11       --         2.056 au  C             1.00      3 P:y             1
                        (      55.959 eV)
    12      12      0.667      -0.189 au  C             1.00      1 P:z             1
                        (      -5.135 eV)
    13      13       --         0.168 au  C             1.00      2 P:z             1
                        (       4.559 eV)
    14      14       --         2.056 au  C             1.00      3 P:z             1
                        (      55.959 eV)
    15      15       --         1.235 au  C             1.00      1 D:z2            1
                        (      33.605 eV)
    16      16       --         1.235 au  C             1.00      1 D:x2-y2         1
                        (      33.605 eV)
    17      17       --         1.235 au  C             1.00      1 D:xy            1
                        (      33.605 eV)
    18      18       --         1.235 au  C             1.00      1 D:xz            1
                        (      33.605 eV)
    19      19       --         1.235 au  C             1.00      1 D:yz            1
                        (      33.605 eV)
    20      20       --         4.005 au  C             1.00      1 F:z3            1
                        (     108.969 eV)
    21      21       --         4.005 au  C             1.00      1 F:z             1
                        (     108.969 eV)
    22      22       --         4.005 au  C             1.00      1 F:xyz           1
                        (     108.969 eV)
    23      23       --         4.005 au  C             1.00      1 F:z2x           1
                        (     108.969 eV)
    24      24       --         4.005 au  C             1.00      1 F:z2y           1
                        (     108.969 eV)
    25      25       --         4.005 au  C             1.00      1 F:x             1
                        (     108.969 eV)
    26      26       --         4.005 au  C             1.00      1 F:y             1
                        (     108.969 eV)
    27      27      2.000     -10.064 au  C             1.00      1 S               2
                        (    -273.865 eV)
    28      28      2.000      -0.507 au  C             1.00      2 S               2
                        (     -13.802 eV)
    29      29       --         0.384 au  C             1.00      3 S               2
                        (      10.456 eV)
    30      30       --         5.458 au  C             1.00      4 S               2
                        (     148.511 eV)
    31      31       --        49.970 au  C             1.00      5 S               2
                        (    1359.766 eV)
    32      32      0.667      -0.189 au  C             1.00      1 P:x             2
                        (      -5.135 eV)
    33      33       --         0.168 au  C             1.00      2 P:x             2
                        (       4.559 eV)
    34      34       --         2.056 au  C             1.00      3 P:x             2
                        (      55.959 eV)
    35      35      0.667      -0.189 au  C             1.00      1 P:y             2
                        (      -5.135 eV)
    36      36       --         0.168 au  C             1.00      2 P:y             2
                        (       4.559 eV)
    37      37       --         2.056 au  C             1.00      3 P:y             2
                        (      55.959 eV)
    38      38      0.667      -0.189 au  C             1.00      1 P:z             2
                        (      -5.135 eV)
    39      39       --         0.168 au  C             1.00      2 P:z             2
                        (       4.559 eV)
    40      40       --         2.056 au  C             1.00      3 P:z             2
                        (      55.959 eV)
    41      41       --         1.235 au  C             1.00      1 D:z2            2
                        (      33.605 eV)
    42      42       --         1.235 au  C             1.00      1 D:x2-y2         2
                        (      33.605 eV)
    43      43       --         1.235 au  C             1.00      1 D:xy            2
                        (      33.605 eV)
    44      44       --         1.235 au  C             1.00      1 D:xz            2
                        (      33.605 eV)
    45      45       --         1.235 au  C             1.00      1 D:yz            2
                        (      33.605 eV)
    46      46       --         4.005 au  C             1.00      1 F:z3            2
                        (     108.969 eV)
    47      47       --         4.005 au  C             1.00      1 F:z             2
                        (     108.969 eV)
    48      48       --         4.005 au  C             1.00      1 F:xyz           2
                        (     108.969 eV)
    49      49       --         4.005 au  C             1.00      1 F:z2x           2
                        (     108.969 eV)
    50      50       --         4.005 au  C             1.00      1 F:z2y           2
                        (     108.969 eV)
    51      51       --         4.005 au  C             1.00      1 F:x             2
                        (     108.969 eV)
    52      52       --         4.005 au  C             1.00      1 F:y             2
                        (     108.969 eV)
    53      53      2.000     -10.064 au  C             1.00      1 S               3
                        (    -273.865 eV)
    54      54      2.000      -0.507 au  C             1.00      2 S               3
                        (     -13.802 eV)
    55      55       --         0.384 au  C             1.00      3 S               3
                        (      10.456 eV)
    56      56       --         5.458 au  C             1.00      4 S               3
                        (     148.511 eV)
    57      57       --        49.970 au  C             1.00      5 S               3
                        (    1359.766 eV)
    58      58      0.667      -0.189 au  C             1.00      1 P:x             3
                        (      -5.135 eV)
    59      59       --         0.168 au  C             1.00      2 P:x             3
                        (       4.559 eV)
    60      60       --         2.056 au  C             1.00      3 P:x             3
                        (      55.959 eV)
    61      61      0.667      -0.189 au  C             1.00      1 P:y             3
                        (      -5.135 eV)
    62      62       --         0.168 au  C             1.00      2 P:y             3
                        (       4.559 eV)
    63      63       --         2.056 au  C             1.00      3 P:y             3
                        (      55.959 eV)
    64      64      0.667      -0.189 au  C             1.00      1 P:z             3
                        (      -5.135 eV)
    65      65       --         0.168 au  C             1.00      2 P:z             3
                        (       4.559 eV)
    66      66       --         2.056 au  C             1.00      3 P:z             3
                        (      55.959 eV)
    67      67       --         1.235 au  C             1.00      1 D:z2            3
                        (      33.605 eV)
    68      68       --         1.235 au  C             1.00      1 D:x2-y2         3
                        (      33.605 eV)
    69      69       --         1.235 au  C             1.00      1 D:xy            3
                        (      33.605 eV)
    70      70       --         1.235 au  C             1.00      1 D:xz            3
                        (      33.605 eV)
    71      71       --         1.235 au  C             1.00      1 D:yz            3
                        (      33.605 eV)
    72      72       --         4.005 au  C             1.00      1 F:z3            3
                        (     108.969 eV)
    73      73       --         4.005 au  C             1.00      1 F:z             3
                        (     108.969 eV)
    74      74       --         4.005 au  C             1.00      1 F:xyz           3
                        (     108.969 eV)
    75      75       --         4.005 au  C             1.00      1 F:z2x           3
                        (     108.969 eV)
    76      76       --         4.005 au  C             1.00      1 F:z2y           3
                        (     108.969 eV)
    77      77       --         4.005 au  C             1.00      1 F:x             3
                        (     108.969 eV)
    78      78       --         4.005 au  C             1.00      1 F:y             3
                        (     108.969 eV)
    79      79      2.000     -10.064 au  C             1.00      1 S               4
                        (    -273.865 eV)
    80      80      2.000      -0.507 au  C             1.00      2 S               4
                        (     -13.802 eV)
    81      81       --         0.384 au  C             1.00      3 S               4
                        (      10.456 eV)
    82      82       --         5.458 au  C             1.00      4 S               4
                        (     148.511 eV)
    83      83       --        49.970 au  C             1.00      5 S               4
                        (    1359.766 eV)
    84      84      0.667      -0.189 au  C             1.00      1 P:x             4
                        (      -5.135 eV)
    85      85       --         0.168 au  C             1.00      2 P:x             4
                        (       4.559 eV)
    86      86       --         2.056 au  C             1.00      3 P:x             4
                        (      55.959 eV)
    87      87      0.667      -0.189 au  C             1.00      1 P:y             4
                        (      -5.135 eV)
    88      88       --         0.168 au  C             1.00      2 P:y             4
                        (       4.559 eV)
    89      89       --         2.056 au  C             1.00      3 P:y             4
                        (      55.959 eV)
    90      90      0.667      -0.189 au  C             1.00      1 P:z             4
                        (      -5.135 eV)
    91      91       --         0.168 au  C             1.00      2 P:z             4
                        (       4.559 eV)
    92      92       --         2.056 au  C             1.00      3 P:z             4
                        (      55.959 eV)
    93      93       --         1.235 au  C             1.00      1 D:z2            4
                        (      33.605 eV)
    94      94       --         1.235 au  C             1.00      1 D:x2-y2         4
                        (      33.605 eV)
    95      95       --         1.235 au  C             1.00      1 D:xy            4
                        (      33.605 eV)
    96      96       --         1.235 au  C             1.00      1 D:xz            4
                        (      33.605 eV)
    97      97       --         1.235 au  C             1.00      1 D:yz            4
                        (      33.605 eV)
    98      98       --         4.005 au  C             1.00      1 F:z3            4
                        (     108.969 eV)
    99      99       --         4.005 au  C             1.00      1 F:z             4
                        (     108.969 eV)
   100     100       --         4.005 au  C             1.00      1 F:xyz           4
                        (     108.969 eV)
   101     101       --         4.005 au  C             1.00      1 F:z2x           4
                        (     108.969 eV)
   102     102       --         4.005 au  C             1.00      1 F:z2y           4
                        (     108.969 eV)
   103     103       --         4.005 au  C             1.00      1 F:x             4
                        (     108.969 eV)
   104     104       --         4.005 au  C             1.00      1 F:y             4
                        (     108.969 eV)
   105     105      1.000      -0.238 au  H             1.00      1 S               5
                        (      -6.484 eV)
   106     106       --         0.077 au  H             1.00      2 S               5
                        (       2.096 eV)
   107     107       --         1.521 au  H             1.00      3 S               5
                        (      41.380 eV)
   108     108       --         0.410 au  H             1.00      1 P:x             5
                        (      11.162 eV)
   109     109       --         0.410 au  H             1.00      1 P:y             5
                        (      11.162 eV)
   110     110       --         0.410 au  H             1.00      1 P:z             5
                        (      11.162 eV)
   111     111       --         2.567 au  H             1.00      1 D:z2            5
                        (      69.838 eV)
   112     112       --         2.567 au  H             1.00      1 D:x2-y2         5
                        (      69.838 eV)
   113     113       --         2.567 au  H             1.00      1 D:xy            5
                        (      69.838 eV)
   114     114       --         2.567 au  H             1.00      1 D:xz            5
                        (      69.838 eV)
   115     115       --         2.567 au  H             1.00      1 D:yz            5
                        (      69.838 eV)
   116     116      1.000      -0.238 au  H             1.00      1 S               6
                        (      -6.484 eV)
   117     117       --         0.077 au  H             1.00      2 S               6
                        (       2.096 eV)
   118     118       --         1.521 au  H             1.00      3 S               6
                        (      41.380 eV)
   119     119       --         0.410 au  H             1.00      1 P:x             6
                        (      11.162 eV)
   120     120       --         0.410 au  H             1.00      1 P:y             6
                        (      11.162 eV)
   121     121       --         0.410 au  H             1.00      1 P:z             6
                        (      11.162 eV)
   122     122       --         2.567 au  H             1.00      1 D:z2            6
                        (      69.838 eV)
   123     123       --         2.567 au  H             1.00      1 D:x2-y2         6
                        (      69.838 eV)
   124     124       --         2.567 au  H             1.00      1 D:xy            6
                        (      69.838 eV)
   125     125       --         2.567 au  H             1.00      1 D:xz            6
                        (      69.838 eV)
   126     126       --         2.567 au  H             1.00      1 D:yz            6
                        (      69.838 eV)
   127     127      1.000      -0.238 au  H             1.00      1 S               7
                        (      -6.484 eV)
   128     128       --         0.077 au  H             1.00      2 S               7
                        (       2.096 eV)
   129     129       --         1.521 au  H             1.00      3 S               7
                        (      41.380 eV)
   130     130       --         0.410 au  H             1.00      1 P:x             7
                        (      11.162 eV)
   131     131       --         0.410 au  H             1.00      1 P:y             7
                        (      11.162 eV)
   132     132       --         0.410 au  H             1.00      1 P:z             7
                        (      11.162 eV)
   133     133       --         2.567 au  H             1.00      1 D:z2            7
                        (      69.838 eV)
   134     134       --         2.567 au  H             1.00      1 D:x2-y2         7
                        (      69.838 eV)
   135     135       --         2.567 au  H             1.00      1 D:xy            7
                        (      69.838 eV)
   136     136       --         2.567 au  H             1.00      1 D:xz            7
                        (      69.838 eV)
   137     137       --         2.567 au  H             1.00      1 D:yz            7
                        (      69.838 eV)
   138     138      1.000      -0.238 au  H             1.00      1 S               8
                        (      -6.484 eV)
   139     139       --         0.077 au  H             1.00      2 S               8
                        (       2.096 eV)
   140     140       --         1.521 au  H             1.00      3 S               8
                        (      41.380 eV)
   141     141       --         0.410 au  H             1.00      1 P:x             8
                        (      11.162 eV)
   142     142       --         0.410 au  H             1.00      1 P:y             8
                        (      11.162 eV)
   143     143       --         0.410 au  H             1.00      1 P:z             8
                        (      11.162 eV)
   144     144       --         2.567 au  H             1.00      1 D:z2            8
                        (      69.838 eV)
   145     145       --         2.567 au  H             1.00      1 D:x2-y2         8
                        (      69.838 eV)
   146     146       --         2.567 au  H             1.00      1 D:xy            8
                        (      69.838 eV)
   147     147       --         2.567 au  H             1.00      1 D:xz            8
                        (      69.838 eV)
   148     148       --         2.567 au  H             1.00      1 D:yz            8
                        (      69.838 eV)
   149     149      1.000      -0.238 au  H             1.00      1 S               9
                        (      -6.484 eV)
   150     150       --         0.077 au  H             1.00      2 S               9
                        (       2.096 eV)
   151     151       --         1.521 au  H             1.00      3 S               9
                        (      41.380 eV)
   152     152       --         0.410 au  H             1.00      1 P:x             9
                        (      11.162 eV)
   153     153       --         0.410 au  H             1.00      1 P:y             9
                        (      11.162 eV)
   154     154       --         0.410 au  H             1.00      1 P:z             9
                        (      11.162 eV)
   155     155       --         2.567 au  H             1.00      1 D:z2            9
                        (      69.838 eV)
   156     156       --         2.567 au  H             1.00      1 D:x2-y2         9
                        (      69.838 eV)
   157     157       --         2.567 au  H             1.00      1 D:xy            9
                        (      69.838 eV)
   158     158       --         2.567 au  H             1.00      1 D:xz            9
                        (      69.838 eV)
   159     159       --         2.567 au  H             1.00      1 D:yz            9
                        (      69.838 eV)
   160     160      1.000      -0.238 au  H             1.00      1 S              10
                        (      -6.484 eV)
   161     161       --         0.077 au  H             1.00      2 S              10
                        (       2.096 eV)
   162     162       --         1.521 au  H             1.00      3 S              10
                        (      41.380 eV)
   163     163       --         0.410 au  H             1.00      1 P:x            10
                        (      11.162 eV)
   164     164       --         0.410 au  H             1.00      1 P:y            10
                        (      11.162 eV)
   165     165       --         0.410 au  H             1.00      1 P:z            10
                        (      11.162 eV)
   166     166       --         2.567 au  H             1.00      1 D:z2           10
                        (      69.838 eV)
   167     167       --         2.567 au  H             1.00      1 D:x2-y2        10
                        (      69.838 eV)
   168     168       --         2.567 au  H             1.00      1 D:xy           10
                        (      69.838 eV)
   169     169       --         2.567 au  H             1.00      1 D:xz           10
                        (      69.838 eV)
   170     170       --         2.567 au  H             1.00      1 D:yz           10
                        (      69.838 eV)
   171     171      1.000      -0.238 au  H             1.00      1 S              11
                        (      -6.484 eV)
   172     172       --         0.077 au  H             1.00      2 S              11
                        (       2.096 eV)
   173     173       --         1.521 au  H             1.00      3 S              11
                        (      41.380 eV)
   174     174       --         0.410 au  H             1.00      1 P:x            11
                        (      11.162 eV)
   175     175       --         0.410 au  H             1.00      1 P:y            11
                        (      11.162 eV)
   176     176       --         0.410 au  H             1.00      1 P:z            11
                        (      11.162 eV)
   177     177       --         2.567 au  H             1.00      1 D:z2           11
                        (      69.838 eV)
   178     178       --         2.567 au  H             1.00      1 D:x2-y2        11
                        (      69.838 eV)
   179     179       --         2.567 au  H             1.00      1 D:xy           11
                        (      69.838 eV)
   180     180       --         2.567 au  H             1.00      1 D:xz           11
                        (      69.838 eV)
   181     181       --         2.567 au  H             1.00      1 D:yz           11
                        (      69.838 eV)
   182     182      2.000     -18.926 au  O             1.00      1 S              12
                        (    -515.001 eV)
   183     183      2.000      -0.887 au  O             1.00      2 S              12
                        (     -24.136 eV)
   184     184       --         0.804 au  O             1.00      3 S              12
                        (      21.890 eV)
   185     185       --        13.488 au  O             1.00      4 S              12
                        (     367.032 eV)
   186     186       --       121.767 au  O             1.00      5 S              12
                        (    3313.451 eV)
   187     187      1.333      -0.329 au  O             1.00      1 P:x            12
                        (      -8.949 eV)
   188     188       --         0.351 au  O             1.00      2 P:x            12
                        (       9.557 eV)
   189     189       --         3.863 au  O             1.00      3 P:x            12
                        (     105.120 eV)
   190     190      1.333      -0.329 au  O             1.00      1 P:y            12
                        (      -8.949 eV)
   191     191       --         0.351 au  O             1.00      2 P:y            12
                        (       9.557 eV)
   192     192       --         3.863 au  O             1.00      3 P:y            12
                        (     105.120 eV)
   193     193      1.333      -0.329 au  O             1.00      1 P:z            12
                        (      -8.949 eV)
   194     194       --         0.351 au  O             1.00      2 P:z            12
                        (       9.557 eV)
   195     195       --         3.863 au  O             1.00      3 P:z            12
                        (     105.120 eV)
   196     196       --         1.072 au  O             1.00      1 D:z2           12
                        (      29.175 eV)
   197     197       --         1.072 au  O             1.00      1 D:x2-y2        12
                        (      29.175 eV)
   198     198       --         1.072 au  O             1.00      1 D:xy           12
                        (      29.175 eV)
   199     199       --         1.072 au  O             1.00      1 D:xz           12
                        (      29.175 eV)
   200     200       --         1.072 au  O             1.00      1 D:yz           12
                        (      29.175 eV)
   201     201       --         3.353 au  O             1.00      1 F:z3           12
                        (      91.230 eV)
   202     202       --         3.353 au  O             1.00      1 F:z            12
                        (      91.230 eV)
   203     203       --         3.353 au  O             1.00      1 F:xyz          12
                        (      91.230 eV)
   204     204       --         3.353 au  O             1.00      1 F:z2x          12
                        (      91.230 eV)
   205     205       --         3.353 au  O             1.00      1 F:z2y          12
                        (      91.230 eV)
   206     206       --         3.353 au  O             1.00      1 F:x            12
                        (      91.230 eV)
   207     207       --         3.353 au  O             1.00      1 F:y            12
                        (      91.230 eV)



 ================================
 (Slater-type)  F U N C T I O N S  ***  (Basis and Fit)  ***
 ================================
  

 Atom Type    1  (C)
 ==============

 Valence Basis Sets:  10
 -----------------------
   1 S    7.680000
   1 S    5.000000
   2 S    1.280000
   2 S    2.100000
   2 S    4.600000
   2 P    0.820000
   2 P    1.480000
   2 P    2.940000
   3 D    2.200000
   4 F    3.300000

 Atom Type    2  (H)
 ==============

 Valence Basis Sets:   5
 -----------------------
   1 S    0.690000
   1 S    0.920000
   1 S    1.580000
   2 P    1.250000
   3 D    2.500000

 Atom Type    3  (O)
 ==============

 Valence Basis Sets:  10
 -----------------------
   1 S    9.800000
   1 S    6.800000
   2 S    7.580000
   2 S    2.880000
   2 S    1.720000
   2 P    4.080000
   2 P    2.080000
   2 P    1.120000
   3 D    2.000000
   4 F    3.000000


 BAS: List of all Elementary Cartesian Basis Functions
 =====================================================

 The numbering in the list below (to the right of the function characteristics) is referred
 to in print-outs of MO eigenvectors and Mulliken populations in the BAS representation
 (as contrasted to the SFO representation).

 Notes:
 1. The functions are characterized by a polynomial prefactor (powers of x,y,z and r) and
    an exponential decay factor alpha.
 2. Since the basis sets are specific for an atom TYPE, the individual functions occur on
    all atoms of that type.
 3. The word 'Core' in the left margin signals that it is a Core Function (CF) : not a
    degree of freedom in the valence set, but only used to ensure orthogonalization of
    the other valence basis functions on the frozen Core Orbitals.


 (power of) X  Y  Z  R     Alpha  on Atom
            ==========     =====     ==========

 C                                    1    2    3    4
                                  ---------------------------------------------------------------------------
            0  0  0  0     7.680      1   31   61   91
            0  0  0  0     5.000      2   32   62   92
            0  0  0  1     1.280      3   33   63   93
            0  0  0  1     2.100      4   34   64   94
            0  0  0  1     4.600      5   35   65   95
            1  0  0  0     0.820      6   36   66   96
            0  1  0  0     0.820      7   37   67   97
            0  0  1  0     0.820      8   38   68   98
            1  0  0  0     1.480      9   39   69   99
            0  1  0  0     1.480     10   40   70  100
            0  0  1  0     1.480     11   41   71  101
            1  0  0  0     2.940     12   42   72  102
            0  1  0  0     2.940     13   43   73  103
            0  0  1  0     2.940     14   44   74  104
            2  0  0  0     2.200     15   45   75  105
            1  1  0  0     2.200     16   46   76  106
            1  0  1  0     2.200     17   47   77  107
            0  2  0  0     2.200     18   48   78  108
            0  1  1  0     2.200     19   49   79  109
            0  0  2  0     2.200     20   50   80  110
            3  0  0  0     3.300     21   51   81  111
            2  1  0  0     3.300     22   52   82  112
            2  0  1  0     3.300     23   53   83  113
            1  2  0  0     3.300     24   54   84  114
            1  1  1  0     3.300     25   55   85  115
            1  0  2  0     3.300     26   56   86  116
            0  3  0  0     3.300     27   57   87  117
            0  2  1  0     3.300     28   58   88  118
            0  1  2  0     3.300     29   59   89  119
            0  0  3  0     3.300     30   60   90  120

 H                                    5    6    7    8    9   10   11
                                  ---------------------------------------------------------------------------
            0  0  0  0     0.690    121  133  145  157  169  181  193
            0  0  0  0     0.920    122  134  146  158  170  182  194
            0  0  0  0     1.580    123  135  147  159  171  183  195
            1  0  0  0     1.250    124  136  148  160  172  184  196
            0  1  0  0     1.250    125  137  149  161  173  185  197
            0  0  1  0     1.250    126  138  150  162  174  186  198
            2  0  0  0     2.500    127  139  151  163  175  187  199
            1  1  0  0     2.500    128  140  152  164  176  188  200
            1  0  1  0     2.500    129  141  153  165  177  189  201
            0  2  0  0     2.500    130  142  154  166  178  190  202
            0  1  1  0     2.500    131  143  155  167  179  191  203
            0  0  2  0     2.500    132  144  156  168  180  192  204

 O                                   12
                                  ---------------------------------------------------------------------------
            0  0  0  0     9.800    205
            0  0  0  0     6.800    206
            0  0  0  1     7.580    207
            0  0  0  1     2.880    208
            0  0  0  1     1.720    209
            1  0  0  0     4.080    210
            0  1  0  0     4.080    211
            0  0  1  0     4.080    212
            1  0  0  0     2.080    213
            0  1  0  0     2.080    214
            0  0  1  0     2.080    215
            1  0  0  0     1.120    216
            0  1  0  0     1.120    217
            0  0  1  0     1.120    218
            2  0  0  0     2.000    219
            1  1  0  0     2.000    220
            1  0  1  0     2.000    221
            0  2  0  0     2.000    222
            0  1  1  0     2.000    223
            0  0  2  0     2.000    224
            3  0  0  0     3.000    225
            2  1  0  0     3.000    226
            2  0  1  0     3.000    227
            1  2  0  0     3.000    228
            1  1  1  0     3.000    229
            1  0  2  0     3.000    230
            0  3  0  0     3.000    231
            0  2  1  0     3.000    232
            0  1  2  0     3.000    233
            0  0  3  0     3.000    234

 Total number of charge fitting functions (nprimf)       770
 Total number of Cartesian basis functions (naos)        234
 Total number of Cartesian core functions  (ncos)          0

1
 ***************************************************************************************************



                                              ***********************
                                              *  T E C H N I C A L  *
                                              ***********************
  



 =============================================================
 P A R A L L E L I Z A T I O N  and  V E C T O R I Z A T I O N
 =============================================================
  
 Nr of parallel processes:                               16
 Maximum vector length in NumInt loops:                 128



 =====================
 S C F   U P D A T E S
 =====================
  
 Max. nr. of cycles:                                99
 Convergence criterion:                              0.0000010000
   secondary criterion:                              0.0010000000

 Mix parameter (when DIIS does not apply):           0.2000000000
 Mixed ADIIS+SDIIS will be used                  
    Max number of expansion vectors:                10
    Pure ADIIS when Max([F,P]) is above              0.1000000000
    Pure SDIIS when Max([F,P]) is below              0.0010000000
 Automatic ElectronSmearing (in case of problematic SCF convergence) disabled



 =================
 P R E C I S I O N  ***  (General: NumInt, NeglectFunctionTails, ...)  ***
 =================
  

 NumInt:           Target precision:                 8.0000000000
 -------           Initial precision:                8.0000000000
                   Min. precision (optimization):    8.0000000000

 Neglect Functions:          Basis functions:        0.1000000000E-09
 ------------------          Fit functions:          0.1000000000E-09



 ===========================
 L I N E A R   S C A L I N G
 ===========================
  

 Cut-off radii density fit:                        0.1000000000E-11
 Overlap cut-off criterion AO matrix elements:     0.1000000000E-09
 Cut-offs for Coulomb potential and fitted density:0.1000000000E-11
 Cut-off criterion for Coulomb multipole terms:    0.1000000000E-11
 Progressive Convergence parameter:                 0.000000000    

 Number of elements of the density matrix on this node (used, total):      1905     27495



 ===========================================
 Numerical Integration : Fuzzy Cells (Becke)
 ===========================================
  
 Becke grid quality: VERYGOOD       
  
 Lebedev angular grid order:             min:  13 max:  41
 Nr. of radial points:                   min:  64 max:  72

 Total nr. of points:     282947
 Nr. of blocks:             2211
 Block length:               128
 Nr. of dummy points:         61


 Test of Precision of the Numerical Integration Grid
 ===================================================

 Integral of the Total Core Density:                   0.00000000000000



 ========================
 Density Fitting (zlmFit)
 ========================
  
 ZlmFit Fit Quality: VERYGOOD       
  
 Max L-expansion:                        min:  10 max:  11
 Nr. of radial interpolation points:     min: 130 max: 180



 =====
 S C F  ***  ScaSCF  ***
 =====
  
 Initial density matrix is taken from previous geometry

 CYCLE    1
  ***********************************************************
  ** : orbital data taken from :/scratch/3144/amstmp_ams_kid0.1047270668/GOStep1.rkf
  ***********************************************************
 SCF Error: norm([F,P])=      0.000001098468, max([F,P])=      0.000000154454
 ***** SPIN 1 *****
 orbitals (Q,E):
 ---------------
 A :11...30          ( 1.00    -0.4287)  ( 1.00    -0.4262)  ( 1.00    -0.3914)  ( 1.00    -0.3694)
                     ( 1.00    -0.3640)  ( 1.00    -0.3449)  ( 1.00    -0.3305)  ( 1.00    -0.3214)
                     ( 1.00    -0.2138)  ( 1.00    -0.2085)  ( 0.00    -0.0283)  ( 0.00    -0.0146)
                     ( 0.00    -0.0013)  ( 0.00     0.0114)  ( 0.00     0.0250)  ( 0.00     0.0534)
                     ( 0.00     0.0594)  ( 0.00     0.0626)  ( 0.00     0.1198)  ( 0.00     0.1291)
 ***** SPIN 2 *****
 orbitals (Q,E):
 ---------------
 A :10...29          ( 1.00    -0.5106)  ( 1.00    -0.4249)  ( 1.00    -0.4204)  ( 1.00    -0.3820)
                     ( 1.00    -0.3651)  ( 1.00    -0.3524)  ( 1.00    -0.3294)  ( 1.00    -0.3249)
                     ( 1.00    -0.3190)  ( 1.00    -0.2034)  ( 0.00    -0.1563)  ( 0.00    -0.0196)
                     ( 0.00    -0.0013)  ( 0.00     0.0005)  ( 0.00     0.0112)  ( 0.00     0.0259)
                     ( 0.00     0.0538)  ( 0.00     0.0602)  ( 0.00     0.0627)  ( 0.00     0.1228)
  
 Spin polar: 1 (Spin_A minus Spin_B electrons)

 CYCLE    2
  SDIIS (wt  0.000):  0.7205  0.2795
 A-DIIS (wt  1.000):  0.0000  1.0000
  DIIS coefficients:  0.0000  1.0000
 SCF Error: norm([F,P])=      0.000002680923, max([F,P])=      0.000000518210
 ***** SPIN 1 *****
 orbitals (Q,E):
 ---------------
 A :11...21          ( 1.00    -0.4287)  ( 1.00    -0.4262)  ( 1.00    -0.3914)  ( 1.00    -0.3694)
                     ( 1.00    -0.3640)  ( 1.00    -0.3449)  ( 1.00    -0.3305)  ( 1.00    -0.3214)
                     ( 1.00    -0.2138)  ( 1.00    -0.2085)  ( 0.00    -0.0283)
 ***** SPIN 2 *****
 orbitals (Q,E):
 ---------------
 A :10...20          ( 1.00    -0.5106)  ( 1.00    -0.4249)  ( 1.00    -0.4204)  ( 1.00    -0.3820)
                     ( 1.00    -0.3651)  ( 1.00    -0.3524)  ( 1.00    -0.3294)  ( 1.00    -0.3249)
                     ( 1.00    -0.3190)  ( 1.00    -0.2034)  ( 0.00    -0.1563)
  
 Spin polar: 1 (Spin_A minus Spin_B electrons)

 SCF CONVERGED

 CYCLE    3
1
 ***************************************************************************************************



                                                *******************
                                                *  R E S U L T S  *
                                                *******************
  
 *** Using FIT density in Focky
  SDIIS (wt  0.000):  0.4177  0.4753  0.1070
 A-DIIS (wt  1.000):  0.0000  0.8370  0.1630
  DIIS coefficients:  0.0000  0.8370  0.1630
 SCF Error: norm([F,P])=      0.000008325677, max([F,P])=      0.000001653957


                                   ***** SPIN 1 *****

 Scaled ZORA Orbital Energies, per Irrep and Spin:
 =================================================
                        Occup              E (au)              E (eV)       Diff (eV) with prev. cycle
                        -----      --------------------        ------       --------------------------
 A
              11        1.000     -0.42867812529171E+00       -11.665               3.66E-06
              12        1.000     -0.42617231503406E+00       -11.597               2.54E-06
              13        1.000     -0.39138086706026E+00       -10.650              -2.51E-06
              14        1.000     -0.36938608866995E+00       -10.052               2.64E-06
              15        1.000     -0.36397563359796E+00        -9.904              -1.63E-06
              16        1.000     -0.34487745144590E+00        -9.385              -2.22E-06
              17        1.000     -0.33049649355850E+00        -8.993               3.15E-06
              18        1.000     -0.32137467930715E+00        -8.745               3.86E-06
              19        1.000     -0.21375952840660E+00        -5.817              -9.37E-06
              20        1.000     -0.20852581729837E+00        -5.674               1.44E-06
              21        0.000     -0.28263653651596E-01        -0.769
              22        0.000     -0.14575090376071E-01        -0.397
              23        0.000     -0.12638180385277E-02        -0.034
              24        0.000      0.11448259544662E-01         0.312
              25        0.000      0.25004783687290E-01         0.680
              26        0.000      0.53405646536737E-01         1.453
              27        0.000      0.59357081357879E-01         1.615
              28        0.000      0.62560837702031E-01         1.702
              29        0.000      0.11984310092677E+00         3.261
              30        0.000      0.12907552939789E+00         3.512
  
 HOMO :       20 A                -0.20852581729837E+00
 LUMO :       21 A                -0.28263653651596E-01
  


                                   ***** SPIN 2 *****

 Scaled ZORA Orbital Energies, per Irrep and Spin:
 =================================================
                        Occup              E (au)              E (eV)       Diff (eV) with prev. cycle
                        -----      --------------------        ------       --------------------------
 A
              10        1.000     -0.51063916221064E+00       -13.895               3.79E-06
              11        1.000     -0.42491536386021E+00       -11.563               3.54E-06
              12        1.000     -0.42038986166791E+00       -11.439               3.14E-06
              13        1.000     -0.38201132665821E+00       -10.395              -2.52E-06
              14        1.000     -0.36514287400701E+00        -9.936               2.16E-06
              15        1.000     -0.35235633638473E+00        -9.588               1.42E-06
              16        1.000     -0.32940813080242E+00        -8.964              -1.85E-06
              17        1.000     -0.32489983372968E+00        -8.841               1.88E-06
              18        1.000     -0.31898848886586E+00        -8.680               2.99E-06
              19        1.000     -0.20335550859873E+00        -5.534              -9.22E-06
              20        0.000     -0.15634991604272E+00        -4.254
              21        0.000     -0.19558932516927E-01        -0.532
              22        0.000     -0.13427706402650E-02        -0.037
              23        0.000      0.46561789862846E-03         0.013
              24        0.000      0.11239329228418E-01         0.306
              25        0.000      0.25850948182063E-01         0.703
              26        0.000      0.53759817806812E-01         1.463
              27        0.000      0.60216265590284E-01         1.639
              28        0.000      0.62740768598606E-01         1.707
              29        0.000      0.12281897050466E+00         3.342
  
 HOMO :       19 A                -0.20335550859873E+00
 LUMO :       20 A                -0.15634991604272E+00
  


 Orbital Energies, both Spins
 ========================================

 Irrep        no.  (spin)   Occup              E (au)                E (eV)
 ---------------------------------------------------------------------------
 A             1     A       1.00       -0.18770539916020E+02      -510.7724
 A             1      B      1.00       -0.18764524534470E+02      -510.6087
 A             2      B      1.00       -0.99790443659820E+01      -271.5436
 A             2     A       1.00       -0.99783758418369E+01      -271.5254
 A             3     A       1.00       -0.99492970140485E+01      -270.7341
 A             3      B      1.00       -0.99435457844072E+01      -270.5776
 A             4      B      1.00       -0.99354574505160E+01      -270.3576
 A             4     A       1.00       -0.99352001383232E+01      -270.3506
 A             5     A       1.00       -0.99187427610368E+01      -269.9027
 A             5      B      1.00       -0.99181987901018E+01      -269.8879
 A             6     A       1.00       -0.95272177956964E+00       -25.9249
 A             6      B      1.00       -0.93878093925814E+00       -25.5455
 A             7     A       1.00       -0.75251144865747E+00       -20.4769
 A             7      B      1.00       -0.74190317942784E+00       -20.1882
 A             8     A       1.00       -0.66466755272159E+00       -18.0865
 A             8      B      1.00       -0.65262023052004E+00       -17.7587
 A             9     A       1.00       -0.57273062596233E+00       -15.5848
 A             9      B      1.00       -0.56861332288774E+00       -15.4728
 A            10     A       1.00       -0.51835424726012E+00       -14.1051
 A            10      B      1.00       -0.51063916221064E+00       -13.8952
 A            11     A       1.00       -0.42867812529171E+00       -11.6649
 A            12     A       1.00       -0.42617231503406E+00       -11.5967
 A            11      B      1.00       -0.42491536386021E+00       -11.5625
 A            12      B      1.00       -0.42038986166791E+00       -11.4394
 A            13     A       1.00       -0.39138086706026E+00       -10.6500
 A            13      B      1.00       -0.38201132665821E+00       -10.3951
 A            14     A       1.00       -0.36938608866995E+00       -10.0515
 A            14      B      1.00       -0.36514287400701E+00        -9.9360
 A            15     A       1.00       -0.36397563359796E+00        -9.9043
 A            15      B      1.00       -0.35235633638473E+00        -9.5881
 A            16     A       1.00       -0.34487745144590E+00        -9.3846
 A            17     A       1.00       -0.33049649355850E+00        -8.9933
 A            16      B      1.00       -0.32940813080242E+00        -8.9637
 A            17      B      1.00       -0.32489983372968E+00        -8.8410
 A            18     A       1.00       -0.32137467930715E+00        -8.7450
 A            18      B      1.00       -0.31898848886586E+00        -8.6801
 A            19     A       1.00       -0.21375952840660E+00        -5.8167
 A            20     A       1.00       -0.20852581729837E+00        -5.6743
 A            19      B      1.00       -0.20335550859873E+00        -5.5336
 A            20      B      0.00       -0.15634991604272E+00        -4.2545
 A            21     A       0.00       -0.28263653651596E-01        -0.7691
 A            21      B      0.00       -0.19558932516927E-01        -0.5322
 A            22     A       0.00       -0.14575090376071E-01        -0.3966
 A            22      B      0.00       -0.13427706402650E-02        -0.0365
 A            23     A       0.00       -0.12638180385277E-02        -0.0344
 A            23      B      0.00        0.46561789862846E-03         0.0127
 A            24      B      0.00        0.11239329228418E-01         0.3058
 A            24     A       0.00        0.11448259544662E-01         0.3115
 A            25     A       0.00        0.25004783687290E-01         0.6804
 A            25      B      0.00        0.25850948182063E-01         0.7034
 A            26     A       0.00        0.53405646536737E-01         1.4532
 A            26      B      0.00        0.53759817806812E-01         1.4629
 A            27     A       0.00        0.59357081357879E-01         1.6152
 A            27      B      0.00        0.60216265590284E-01         1.6386
 A            28     A       0.00        0.62560837702031E-01         1.7024
 A            28      B      0.00        0.62740768598606E-01         1.7073
 A            29     A       0.00        0.11984310092677E+00         3.2611
 A            29      B      0.00        0.12281897050466E+00         3.3421
 A            30     A       0.00        0.12907552939789E+00         3.5123
 A            30      B      0.00        0.13069493184428E+00         3.5564
 A            31     A       0.00        0.13493131664811E+00         3.6717
 A            31      B      0.00        0.13584880775031E+00         3.6966
 A            32     A       0.00        0.16246077280060E+00         4.4208
 A            32      B      0.00        0.16441232477587E+00         4.4739
 A            33     A       0.00        0.16949000235339E+00         4.6121
 A            33      B      0.00        0.17152252456082E+00         4.6674
 A            34     A       0.00        0.17500712493127E+00         4.7622
 A            34      B      0.00        0.17821946827414E+00         4.8496
 A            35     A       0.00        0.18707208609305E+00         5.0905
 A            35      B      0.00        0.18815254614166E+00         5.1199
 A            36     A       0.00        0.23449611650523E+00         6.3810
 A            37     A       0.00        0.23743363593546E+00         6.4609
 A            36      B      0.00        0.23824720598968E+00         6.4830
 A            37      B      0.00        0.24317950212272E+00         6.6173
 A            38     A       0.00        0.25513433277837E+00         6.9426
 A            38      B      0.00        0.26432430339154E+00         7.1926
 A            39     A       0.00        0.29179308364601E+00         7.9401
 A            39      B      0.00        0.29962531315255E+00         8.1532
 A            40     A       0.00        0.31788077360269E+00         8.6500
 A            41     A       0.00        0.32527065955027E+00         8.8511
 A            40      B      0.00        0.32633048465059E+00         8.8799
 A            41      B      0.00        0.33192801222793E+00         9.0322
 A            42     A       0.00        0.35326739560401E+00         9.6129
 A            42      B      0.00        0.35610393266545E+00         9.6901
 A            43     A       0.00        0.36346796410478E+00         9.8905
 A            43      B      0.00        0.36976681634283E+00        10.0619
 A            44     A       0.00        0.36987296778270E+00        10.0648
 A            44      B      0.00        0.37229980626158E+00        10.1308
 A            45     A       0.00        0.38248260020414E+00        10.4079
 A            45      B      0.00        0.38619760390831E+00        10.5090
 A            46     A       0.00        0.39237651415526E+00        10.6771
 A            46      B      0.00        0.39516033477072E+00        10.7529
 A            47     A       0.00        0.40170033061552E+00        10.9308
 A            47      B      0.00        0.40342436344986E+00        10.9777
 A            48     A       0.00        0.40815953428470E+00        11.1066
 A            48      B      0.00        0.41133914863814E+00        11.1931
 A            49     A       0.00        0.45190179748200E+00        12.2969
 A            49      B      0.00        0.45609478536846E+00        12.4110
 A            50     A       0.00        0.46742825500792E+00        12.7194
 A            50      B      0.00        0.47106334761057E+00        12.8183
 A            51     A       0.00        0.47665434165272E+00        12.9704
 A            51      B      0.00        0.48249994720463E+00        13.1295
 A            52     A       0.00        0.50036776286126E+00        13.6157
 A            52      B      0.00        0.50632715008890E+00        13.7779
 A            53     A       0.00        0.58268027946064E+00        15.8555
 A            53      B      0.00        0.59087864610709E+00        16.0786
 A            54     A       0.00        0.60080656730331E+00        16.3488
 A            54      B      0.00        0.61084152208056E+00        16.6218
 A            55     A       0.00        0.62998490278687E+00        17.1428
 A            55      B      0.00        0.63942703432453E+00        17.3997
 A            56     A       0.00        0.66141435913253E+00        17.9980
 A            56      B      0.00        0.66646077368389E+00        18.1353
 A            57     A       0.00        0.71782663777230E+00        19.5331
 A            57      B      0.00        0.71938809420395E+00        19.5755
 A            58     A       0.00        0.76351290014901E+00        20.7762
 A            58      B      0.00        0.76545816222650E+00        20.8292
 A            59     A       0.00        0.79312224680359E+00        21.5820
 A            59      B      0.00        0.79939648228251E+00        21.7527
 A            60     A       0.00        0.80719514066365E+00        21.9649
 A            60      B      0.00        0.81771372721842E+00        22.2511
 A            61     A       0.00        0.84117535877523E+00        22.8895
 A            61      B      0.00        0.84657977202037E+00        23.0366
 A            62     A       0.00        0.87112394385234E+00        23.7045
 A            62      B      0.00        0.87527582255845E+00        23.8175
 A            63     A       0.00        0.90019313738716E+00        24.4955
 A            63      B      0.00        0.90169876115988E+00        24.5365
 A            64     A       0.00        0.92860594853918E+00        25.2687
 A            64      B      0.00        0.93339518314377E+00        25.3990
 A            65     A       0.00        0.98851948869501E+00        26.8990
 A            65      B      0.00        0.99303142854854E+00        27.0218
 A            66     A       0.00        0.99857265593234E+00        27.1725
 A            66      B      0.00        0.10057453114844E+01        27.3677
 A            67     A       0.00        0.10146218183427E+01        27.6093
 A            67      B      0.00        0.10178134101028E+01        27.6961
 A            68     A       0.00        0.10419785422246E+01        28.3537
 A            68      B      0.00        0.10449181892280E+01        28.4337
 A            69     A       0.00        0.10595873948939E+01        28.8328
 A            69      B      0.00        0.10676114726279E+01        29.0512
 A            70     A       0.00        0.11013918724984E+01        29.9704
 A            70      B      0.00        0.11064331651658E+01        30.1076
 A            71     A       0.00        0.11088665442801E+01        30.1738
 A            71      B      0.00        0.11131335080427E+01        30.2899
 A            72     A       0.00        0.11357596052093E+01        30.9056
 A            72      B      0.00        0.11447654325555E+01        31.1507
 A            73     A       0.00        0.11555031445997E+01        31.4428
 A            73      B      0.00        0.11645721465644E+01        31.6896
 A            74     A       0.00        0.11689687865868E+01        31.8093
 A            74      B      0.00        0.11789139764079E+01        32.0799
 A            75     A       0.00        0.12049670349351E+01        32.7888
 A            75      B      0.00        0.12128753412549E+01        33.0040
 A            76     A       0.00        0.12223684853608E+01        33.2623
 A            76      B      0.00        0.12282550110247E+01        33.4225
 A            77     A       0.00        0.12404896807783E+01        33.7554
 A            77      B      0.00        0.12456477898768E+01        33.8958
 A            78     A       0.00        0.12548594487577E+01        34.1465
 A            78      B      0.00        0.12574755049259E+01        34.2176
 A            79     A       0.00        0.12918586960879E+01        35.1533
 A            79      B      0.00        0.12950997461468E+01        35.2415
 A            80     A       0.00        0.13072370595648E+01        35.5717
 A            80      B      0.00        0.13138630814583E+01        35.7520
 A            81     A       0.00        0.13772381738023E+01        37.4766
 A            81      B      0.00        0.13860193394804E+01        37.7155
 A            82     A       0.00        0.14431711860438E+01        39.2707
 A            82      B      0.00        0.14569932622864E+01        39.6468
 A            83     A       0.00        0.15029199103636E+01        40.8965
 A            83      B      0.00        0.15093945652701E+01        41.0727
 A            84     A       0.00        0.15098200435529E+01        41.0843
 A            84      B      0.00        0.15146331567166E+01        41.2153
 A            85     A       0.00        0.15445605811105E+01        42.0296
 A            85      B      0.00        0.15592074202566E+01        42.4282
 A            86     A       0.00        0.16386513200505E+01        44.5900
 A            86      B      0.00        0.16444685219584E+01        44.7483
 A            87     A       0.00        0.16593613693394E+01        45.1535
 A            87      B      0.00        0.16667818170405E+01        45.3554
 A            88     A       0.00        0.17030841658590E+01        46.3433
 A            88      B      0.00        0.17117092076307E+01        46.5780
 A            89     A       0.00        0.17254458820735E+01        46.9518
 A            89      B      0.00        0.17377903382330E+01        47.2877
 A            90     A       0.00        0.17540584137051E+01        47.7304
 A            90      B      0.00        0.17582896703708E+01        47.8455
 A            91     A       0.00        0.17887610621513E+01        48.6747
 A            91      B      0.00        0.17954430312602E+01        48.8565
 A            92     A       0.00        0.18137798815886E+01        49.3555
 A            92      B      0.00        0.18231140857931E+01        49.6095
 A            93     A       0.00        0.18587341688671E+01        50.5787
 A            93      B      0.00        0.18647046115202E+01        50.7412
 A            94     A       0.00        0.19281303982220E+01        52.4671
 A            94      B      0.00        0.19317497332182E+01        52.5656
 A            95     A       0.00        0.19712405133966E+01        53.6402
 A            95      B      0.00        0.19766188766961E+01        53.7865
 A            96     A       0.00        0.19886626268082E+01        54.1143
 A            96      B      0.00        0.19942479325510E+01        54.2662
 A            97     A       0.00        0.20044323771808E+01        54.5434
 A            97      B      0.00        0.20107778275388E+01        54.7160
 A            98     A       0.00        0.20507328522283E+01        55.8033
 A            98      B      0.00        0.20565945216989E+01        55.9628
 A            99     A       0.00        0.20855419691352E+01        56.7505
 A           100     A       0.00        0.20881997441950E+01        56.8228
 A            99      B      0.00        0.20884747068735E+01        56.8303
 A           100      B      0.00        0.21008163230483E+01        57.1661
 A           101     A       0.00        0.21470638820453E+01        58.4246
 A           101      B      0.00        0.21519466336211E+01        58.5574
 A           102     A       0.00        0.21896645903729E+01        59.5838
 A           102      B      0.00        0.21991861372613E+01        59.8429
 A           103     A       0.00        0.22116338124712E+01        60.1816
 A           103      B      0.00        0.22196356073668E+01        60.3994
 A           104     A       0.00        0.22688407868341E+01        61.7383
 A           104      B      0.00        0.22737283851061E+01        61.8713
 A           105     A       0.00        0.23228011729201E+01        63.2066
 A           105      B      0.00        0.23272244856691E+01        63.3270
 A           106     A       0.00        0.23447249449035E+01        63.8032
 A           106      B      0.00        0.23483885580128E+01        63.9029
 A           107     A       0.00        0.23858589477446E+01        64.9225
 A           107      B      0.00        0.23940646819149E+01        65.1458
 A           108     A       0.00        0.24109903676929E+01        65.6064
 A           108      B      0.00        0.24150504984033E+01        65.7169
 A           109     A       0.00        0.24906395534688E+01        67.7738
 A           109      B      0.00        0.24949174525463E+01        67.8902
 A           110     A       0.00        0.25509719572976E+01        69.4155
 A           110      B      0.00        0.25576556110081E+01        69.5974
 A           111     A       0.00        0.26395411915186E+01        71.8256
 A           111      B      0.00        0.26505084370995E+01        72.1240
 A           112     A       0.00        0.26538796276593E+01        72.2157
 A           112      B      0.00        0.26681549397441E+01        72.6042
 A           113     A       0.00        0.26741341768583E+01        72.7669
 A           113      B      0.00        0.26796967786807E+01        72.9183
 A           114     A       0.00        0.26942274161200E+01        73.3137
 A           114      B      0.00        0.27009445882222E+01        73.4964
 A           115     A       0.00        0.27689216279136E+01        75.3462
 A           115      B      0.00        0.27723378228965E+01        75.4392
 A           116     A       0.00        0.28037796133847E+01        76.2947
 A           116      B      0.00        0.28074199319294E+01        76.3938
 A           117     A       0.00        0.28293288918672E+01        76.9900
 A           117      B      0.00        0.28356051839877E+01        77.1607
 A           118     A       0.00        0.28456442179033E+01        77.4339
[...]
 Index  Atom      ---- Displacements (x/y/z) ----
     1     C      -0.031765   0.022743   0.058518
     2     C      -0.003401  -0.015471   0.002607
     3     H      -0.014196   0.017898  -0.066394
     4     C       0.068407   0.012339  -0.171487
     5     H      -0.023017   0.051764  -0.046826
     6     H      -0.125842   0.157425  -0.158090
     7     O      -0.010657  -0.005668   0.042136
     8     H      -0.320746  -0.090814   0.757467
     9     C       0.037001  -0.039932  -0.001401
    10     H       0.037949  -0.006799   0.352683
    11     H      -0.106595   0.123085  -0.149042
    12     H      -0.114778   0.079356  -0.027784
 
 Mode:    17      Frequency (cm-1):      980.9244     Intensity (km/mol):       10.7436
 Index  Atom      ---- Displacements (x/y/z) ----
     1     C      -0.042764  -0.053065  -0.065391
     2     C      -0.147165   0.038943  -0.180550
     3     H       0.054741  -0.105726  -0.128849
     4     C       0.069508   0.031254   0.055954
     5     H       0.197754  -0.224516   0.123374
     6     H      -0.274568   0.400841  -0.332678
     7     O       0.009979  -0.021357  -0.003661
     8     H       0.194736  -0.004670  -0.012269
     9     C       0.101593   0.031439   0.175859
    10     H      -0.103838  -0.116030   0.118532
    11     H      -0.092050  -0.080180  -0.075197
    12     H       0.089031  -0.109095   0.533424
 
 Mode:    18      Frequency (cm-1):     1022.1229     Intensity (km/mol):        0.6863
 Index  Atom      ---- Displacements (x/y/z) ----
     1     C       0.016796   0.020720  -0.088740
     2     C      -0.042834  -0.012296   0.155334
     3     H       0.140458  -0.070227   0.010856
     4     C      -0.013155  -0.003006   0.076587
     5     H      -0.042933  -0.010334   0.101696
     6     H      -0.220110   0.401555  -0.073025
     7     O       0.007585  -0.000203  -0.013805
     8     H       0.157383   0.022426  -0.254943
     9     C       0.065647  -0.058231  -0.107306
    10     H      -0.000671  -0.046089   0.484645
    11     H      -0.239935   0.211450  -0.434030
    12     H      -0.229543   0.123258  -0.043278
 
 Mode:    19      Frequency (cm-1):     1140.6267     Intensity (km/mol):        1.1906
 Index  Atom      ---- Displacements (x/y/z) ----
     1     C      -0.083908   0.205394  -0.003010
     2     C      -0.017756  -0.204157  -0.018664
     3     H       0.423481  -0.517776   0.079100
     4     C       0.009770  -0.013760  -0.001996
     5     H      -0.228477   0.292045  -0.057669
     6     H       0.129770  -0.010373   0.214447
     7     O       0.024854  -0.003457   0.011074
     8     H       0.146008  -0.086949   0.074099
     9     C       0.026814   0.074085  -0.019114
    10     H      -0.159849  -0.073551  -0.140211
    11     H      -0.037302  -0.162800  -0.131985
    12     H       0.106824  -0.118749   0.295888
 
 Mode:    20      Frequency (cm-1):     1160.4697     Intensity (km/mol):       17.9688
 Index  Atom      ---- Displacements (x/y/z) ----
     1     C      -0.154702  -0.090154  -0.075822
     2     C       0.061850   0.008361   0.006441
     3     H      -0.021661   0.002800   0.149656
     4     C       0.207741   0.089719   0.098084
     5     H      -0.725602   0.218981  -0.280406
     6     H      -0.054759  -0.059518  -0.148207
     7     O      -0.032942   0.001483  -0.013936
     8     H       0.304075   0.051699   0.139498
     9     C      -0.040033  -0.036657   0.006340
    10     H       0.079745   0.046368   0.002074
    11     H       0.063079   0.028989   0.140971
    12     H      -0.013360   0.029241  -0.199667
 
 Mode:    21      Frequency (cm-1):     1232.2218     Intensity (km/mol):        4.8803
 Index  Atom      ---- Displacements (x/y/z) ----
     1     C       0.029692  -0.066897   0.023731
     2     C      -0.074324   0.000886  -0.002367
     3     H      -0.216014   0.232220  -0.368865
     4     C       0.031093   0.017351   0.010272
     5     H      -0.293319   0.120320  -0.139071
     6     H       0.296944  -0.238664   0.493921
     7     O      -0.016922  -0.000915  -0.006397
     8     H      -0.123752   0.094424  -0.023457
     9     C       0.091632   0.039286  -0.015849
    10     H      -0.132944  -0.105773   0.035069
    11     H      -0.143247  -0.007292  -0.314728
    12     H      -0.048958   0.030891   0.230672
 
 Mode:    22      Frequency (cm-1):     1264.5362     Intensity (km/mol):        0.6515
 Index  Atom      ---- Displacements (x/y/z) ----
     1     C      -0.101279   0.008477  -0.020725
     2     C      -0.035748   0.102493  -0.054040
     3     H       0.154711  -0.184032   0.388359
     4     C       0.010178   0.007427  -0.002646
     5     H       0.317144  -0.219903   0.106009
     6     H       0.323462  -0.363420   0.414488
     7     O       0.011927   0.001421   0.006270
     8     H       0.245894  -0.129285   0.121180
     9     C       0.031220  -0.063846  -0.020425
    10     H       0.079184  -0.008817   0.183189
    11     H      -0.042192   0.156106  -0.073845
    12     H      -0.128852   0.077271  -0.073978
 
 Mode:    23      Frequency (cm-1):     1343.6528     Intensity (km/mol):        1.5478
 Index  Atom      ---- Displacements (x/y/z) ----
     1     C      -0.081612   0.003411  -0.031263
     2     C       0.054583  -0.039774   0.065176
     3     H      -0.206032   0.306854  -0.440946
     4     C      -0.020749  -0.032977  -0.011922
     5     H       0.221304  -0.156695   0.051338
     6     H      -0.030145  -0.127815  -0.064510
     7     O      -0.003883   0.054983   0.004511
     8     H       0.567339  -0.362155   0.200369
     9     C      -0.001177   0.038293  -0.027806
    10     H      -0.040704   0.013210   0.069498
    11     H       0.061217  -0.094529   0.031419
    12     H       0.071557  -0.081825   0.150478
 
 Mode:    24      Frequency (cm-1):     1368.9065     Intensity (km/mol):        2.9420
 Index  Atom      ---- Displacements (x/y/z) ----
     1     C       0.012440   0.001279   0.003707
     2     C       0.007066  -0.012848   0.002801
     3     H      -0.022726   0.000383   0.013013
     4     C      -0.020564  -0.021874  -0.012036
     5     H      -0.021962   0.020948   0.003243
     6     H      -0.024645   0.054677  -0.034391
     7     O      -0.005579   0.028982   0.000864
     8     H       0.214172  -0.156075   0.076935
     9     C       0.036614  -0.015695   0.118005
    10     H      -0.061741  -0.115858  -0.539411
    11     H      -0.357106   0.050500  -0.391584
    12     H      -0.060811   0.270529  -0.480765
 
 Mode:    25      Frequency (cm-1):     1408.9838     Intensity (km/mol):       12.9516
 Index  Atom      ---- Displacements (x/y/z) ----
     1     C       0.157199  -0.069021   0.053400
     2     C      -0.054732   0.020631  -0.062607
     3     H      -0.033281  -0.141519   0.354955
     4     C      -0.051697  -0.080863  -0.030342
     5     H      -0.377688   0.218948  -0.111033
     6     H       0.045635   0.290523   0.110721
     7     O      -0.043085   0.104067  -0.007393
     8     H       0.479428  -0.383213   0.161159
     9     C      -0.011147  -0.008790  -0.030671
    10     H       0.019025   0.022229   0.147545
    11     H       0.119634   0.037194   0.151414
    12     H      -0.040747  -0.052125   0.138663
 
 Mode:    26      Frequency (cm-1):     1433.2639     Intensity (km/mol):        5.3826
 Index  Atom      ---- Displacements (x/y/z) ----
     1     C      -0.044153   0.019395  -0.024138
     2     C       0.045126  -0.065480  -0.033835
     3     H      -0.559987   0.191384   0.366518
     4     C       0.010665   0.008194   0.005432
     5     H       0.096447  -0.070027   0.065544
     6     H       0.203534   0.517657   0.285378
     7     O       0.007797  -0.013864   0.001495
     8     H      -0.056828   0.043772  -0.018762
     9     C      -0.007038   0.016496  -0.000209
    10     H       0.020684   0.031641   0.091060
    11     H      -0.044477  -0.172316  -0.086971
    12     H       0.162107  -0.067325  -0.098407
 
 Mode:    27      Frequency (cm-1):     1460.9219     Intensity (km/mol):        7.6006
 Index  Atom      ---- Displacements (x/y/z) ----
     1     C       0.006195  -0.002041   0.003119
     2     C      -0.019426  -0.004301   0.005206
     3     H       0.024243  -0.009699  -0.063640
     4     C       0.000849  -0.004504  -0.000055
     5     H      -0.025210   0.014738  -0.011553
     6     H      -0.000655  -0.038523   0.029157
     7     O      -0.002578   0.004544  -0.000572
     8     H       0.007993  -0.008720   0.002418
     9     C      -0.043488  -0.020570   0.013428
    10     H       0.570857   0.389407  -0.086492
    11     H      -0.261066   0.300788  -0.241542
    12     H       0.389996  -0.346041   0.122370
 
 Mode:    28      Frequency (cm-1):     1469.1478     Intensity (km/mol):        7.5700
 Index  Atom      ---- Displacements (x/y/z) ----
     1     C      -0.020065   0.014628  -0.008261
     2     C       0.026978  -0.044985  -0.003192
     3     H      -0.170376   0.070891   0.027519
     4     C       0.003621   0.002787   0.001425
     5     H       0.032954  -0.016421   0.021365
     6     H       0.032405   0.145213   0.031832
     7     O       0.003498  -0.005325   0.000891
     8     H      -0.018569   0.014074  -0.004465
     9     C       0.017910  -0.042495  -0.014212
    10     H       0.054089  -0.023227  -0.399848
    11     H       0.088048   0.616181   0.195874
    12     H      -0.412758   0.112058   0.402190
 
 Mode:    29      Frequency (cm-1):     1543.0123     Intensity (km/mol):       92.3078
 Index  Atom      ---- Displacements (x/y/z) ----
     1     C       0.040822  -0.078270   0.006805
     2     C       0.002202  -0.000302   0.002201
     3     H      -0.030246  -0.000295   0.019087
     4     C      -0.305674   0.420279  -0.083612
     5     H      -0.331076   0.140050  -0.122926
     6     H       0.000399   0.067283  -0.000744
     7     O       0.182526  -0.260462   0.049467
     8     H       0.609774  -0.178836   0.235254
     9     C      -0.004748   0.002960  -0.005290
    10     H       0.018395   0.016649   0.003314
    11     H       0.005896   0.008552   0.008083
    12     H       0.013891  -0.023567   0.024162
 
 Mode:    30      Frequency (cm-1):     2838.4094     Intensity (km/mol):      102.4661
 Index  Atom      ---- Displacements (x/y/z) ----
     1     C      -0.003376   0.001266  -0.001253
     2     C      -0.000423  -0.001835  -0.000917
     3     H       0.019326   0.019501   0.010026
     4     C       0.039063   0.068089   0.024007
     5     H       0.004512   0.009035   0.002970
     6     H      -0.005709  -0.004092   0.003889
     7     O      -0.002388   0.003056  -0.000675
     8     H      -0.400092  -0.872756  -0.265341
     9     C       0.000065  -0.000514   0.000024
    10     H      -0.001235   0.001975   0.001132
    11     H       0.001722   0.000554  -0.000757
    12     H      -0.001281  -0.000547  -0.001504
 
 Mode:    31      Frequency (cm-1):     2937.6612     Intensity (km/mol):       10.3178
 Index  Atom      ---- Displacements (x/y/z) ----
     1     C       0.001457  -0.001598  -0.000570
     2     C       0.053124  -0.009443  -0.049799
     3     H       0.134242   0.186078   0.057321
     4     C      -0.001086  -0.000600  -0.001239
     5     H       0.003995   0.007440   0.005548
     6     H      -0.792884  -0.061307   0.550048
     7     O       0.000232  -0.000287   0.000193
     8     H       0.005568   0.010927   0.004042
     9     C      -0.004038   0.001163   0.001395
    10     H       0.017447  -0.029065   0.001901
    11     H       0.035774   0.005447  -0.028548
    12     H       0.003311   0.009803   0.004509
 
 Mode:    32      Frequency (cm-1):     2997.3535     Intensity (km/mol):       25.7127
 Index  Atom      ---- Displacements (x/y/z) ----
     1     C      -0.000753  -0.000590  -0.000456
     2     C      -0.000957  -0.001160  -0.000849
     3     H       0.008898   0.013291   0.006105
     4     C      -0.000267  -0.000363  -0.000146
     5     H       0.006762   0.012646   0.004920
     6     H       0.002908  -0.000198  -0.002900
     7     O       0.000143  -0.000100   0.000038
     8     H       0.001081   0.003327   0.000921
     9     C       0.016854  -0.006324   0.045110
    10     H      -0.324876   0.480049  -0.023685
    11     H       0.445534   0.056659  -0.335493
    12     H      -0.319707  -0.463728  -0.170320
 
 Mode:    33      Frequency (cm-1):     3022.6886     Intensity (km/mol):       10.8388
 Index  Atom      ---- Displacements (x/y/z) ----
     1     C       0.001386   0.004579   0.001529
     2     C      -0.053428  -0.064412  -0.013490
     3     H       0.488501   0.766312   0.284682
     4     C      -0.001870  -0.001018  -0.000810
     5     H      -0.026822  -0.056542  -0.018242
     6     H       0.165251  -0.001701  -0.127747
     7     O       0.000328  -0.000217   0.000078
     8     H       0.013245   0.019890   0.007926
     9     C       0.009592   0.014598  -0.001710
    10     H       0.044266  -0.055618   0.000620
    11     H      -0.084938  -0.006039   0.066537
    12     H      -0.076996  -0.112147  -0.042606
 
 Mode:    34      Frequency (cm-1):     3075.0618     Intensity (km/mol):       24.6516
 Index  Atom      ---- Displacements (x/y/z) ----
     1     C       0.001793   0.003954   0.001282
     2     C      -0.006764  -0.010487  -0.003402
     3     H       0.075169   0.115676   0.045163
     4     C      -0.000621  -0.000018  -0.000166
     5     H      -0.021275  -0.043184  -0.014358
     6     H       0.009669   0.000076  -0.008127
     7     O       0.000100  -0.000098   0.000016
     8     H       0.002791   0.003430   0.001343
     9     C       0.005297  -0.090123  -0.014934
    10     H      -0.412261   0.584018  -0.042637
    11     H      -0.029535  -0.026046   0.019820
    12     H       0.377364   0.518667   0.203583
 
 Mode:    35      Frequency (cm-1):     3077.6790     Intensity (km/mol):       21.4958
 Index  Atom      ---- Displacements (x/y/z) ----
     1     C       0.001196   0.002489   0.000710
     2     C      -0.010205  -0.007583   0.001346
     3     H       0.055647   0.084628   0.033194
     4     C      -0.000139  -0.000096  -0.000053
     5     H      -0.013755  -0.028526  -0.009073
     6     H       0.063692   0.004565  -0.048813
     7     O       0.000025  -0.000004   0.000009
     8     H       0.001443   0.001621   0.000758
     9     C      -0.087100  -0.008163   0.028729
    10     H       0.192512  -0.315374   0.026203
    11     H       0.636711   0.082267  -0.502429
    12     H       0.209360   0.329866   0.134103
 
 Mode:    36      Frequency (cm-1):     3110.0269     Intensity (km/mol):       10.6938
 Index  Atom      ---- Displacements (x/y/z) ----
     1     C      -0.033294  -0.074179  -0.022896
     2     C      -0.005851  -0.003285  -0.001001
     3     H       0.033977   0.058210   0.019743
     4     C       0.001296  -0.001712   0.000380
     5     H       0.386040   0.873830   0.268338
     6     H       0.021741  -0.000953  -0.014307
     7     O       0.000111   0.000020   0.000045
     8     H       0.004620   0.010941   0.003122
     9     C      -0.002094  -0.003672  -0.000786
    10     H      -0.005922   0.008662   0.000997
    11     H       0.006800  -0.000109  -0.005493
    12     H       0.026583   0.035550   0.016265

PES point character: Geometry corresponds to a local minimum on the PES.




 ============================
 Statistical Thermal Analysis  ***  ideal gas assumed  ***
 ============================
  
 Pressure:                  1.000000 atm.
 Temperature:             298.150000 K



 Moments of Inertia [amu*bohr^2] and principal axis
 ==================================================

          88.8202        829.9685        851.0039
 ------------------------------------------------
          -0.7215          0.0368          0.6914
           0.5186         -0.6329          0.5749
          -0.4587         -0.7734         -0.4376


 The rotational contribution to the molecular entropy includes
 a term, dependent on the symmetry number sigma. The results 
 reported below were computed using sigma = 1, determined from
 the point group symmetry of the input geometry (NOSYM). 
 If this is not the correct symmetry, try symmetrizing the molecule before
 running the calculation (note: linear molecules should be aligned along one
 of the Cartesian axes).
 Contributions from frequencies below 20 1/cm are not included in vibrational sums.
 Their contributions, if any, are reported separately.


     Temp                                                        Transl      Rotat     Vibrat     Total
     ----                                                        ------      -----     ------     -----

     298.15   Entropy (cal/mol-K):                               38.699     25.642     13.356     77.697
              Nuclear Internal Energy (kcal/mol):                 0.889      0.889     63.371     65.149
              Constant Volume Heat Capacity (cal/mol-K):          2.981      2.981     14.824     20.785
          (c) Constant Volume Heat Capacity (cal/mol-K):          2.981      2.981     13.804     19.766

       Summary of energy terms
                                                   hartree              eV         kcal/mol           kJ/mol
                                      --------------------     -----------       ----------      -----------
      Energy from Engine:               -2.383730781204607        -64.8646         -1495.81         -6258.48
      Nuclear Internal Energy:           0.103821176412392          2.8251            65.15           272.58
  (c) Nuclear Internal Energy:           0.103293510312011          2.8108            64.82           271.20
      Internal Energy U:                -2.279909604792214        -62.0395         -1430.67         -5985.90
      pV/n = RT:                         0.000944186013486          0.0257             0.59             2.48
      Enthalpy H:                       -2.278965418778728        -62.0138         -1430.07         -5983.42
      -T*S:                             -0.036916511907886         -1.0045           -23.17           -96.92
  (c) -T*S:                             -0.036485025259381         -0.9928           -22.89           -95.79
      Gibbs free energy:                -2.315881930686614        -63.0184         -1453.24         -6080.35
 
 
 
  (c) The properties marked with this symbol have been corrected using 'low vibrational frequency free rotor
      interpolation corrections'. For those terms all positive frequencies are used (also ones below 20 1/cm),
      but the contribution to the partition function of small vibrational frequencies is modified as described
      in the following paper:
      S. Grimme, 'Supramolecular Binding Thermodynamics by Dispersion-Corrected Density Functional Theory'
      (Chem. Eur. J. 2012, 18, 9955-9964)
      Configuration: Dampener Frequency          :   100.000 1/cm
                     Dampener Alpha              :     4.000
                     Averaging Moment of Inertia : 1.000E-44 kg m2

--------------
Atomic charges
--------------
  Index   Atom    Charge
      1      C    0.2898
      2      C    0.3582
      3      H   -0.1923
      4      C    0.5843
      5      H   -0.1657
      6      H   -0.1575
      7      O   -0.4829
      8      H   -0.2718
      9      C    0.6436
     10      H   -0.2045
     11      H   -0.1989
     12      H   -0.2024


Dipole moment vector    (Debye):     2.78115282   -2.42519290    1.01385527
              magnitude (Debye):     3.82678378


Final PES point is a local minimum. Geometry optimization successful!


AMS application finished. Exiting.
NORMAL TERMINATION
     Total cpu time:    1651.84
  Total system time:      15.42
 Total elapsed time:    1814.08
