

 Parallel Execution: Process Information
 ==============================================================================
 Rank   Node Name                              NodeID   MyNodeRank  NodeMaster
    0   node120                                   0          0          0
    1   node120                                   0          1         -1
    2   node120                                   0          2         -1
    3   node120                                   0          3         -1
 ==============================================================================


May use up to 122928MB of RAM as shared memory on node 0

 *******************************************************************************
 *                                                                             *
 *  --------------------------------                                           *
 *   Amsterdam Modeling Suite (AMS)              2021.102                      *
 *  --------------------------------                                           *
 *                                               r95042 2021-06-07             *
 *                                                                             *
 *                                                                             *
 *                              =================                              *
 *                              |               |                              *
 *                              |     A M S     |                              *
 *                              |               |                              *
 *                              =================                              *
 *                                                                             *
 *                                                                             *
 *   Online information and documentation:  https://www.scm.com/support/       *
 *   E-mail:  support@scm.com   info@scm.com                                   *
 *                                                                             *
 *   Scientific publications using AMS results must be properly referenced     *
 *   See the User Manuals (or the web site) for recommended citations          *
 *   The terms and conditions of the End User License Agreement apply to       *
 *   the use of AMS, https://www.scm.com/license-terms/                        *
 *                                                                             *
 **********************  x86_64_linux_intel / intelmpi  ************************
 
 Licensed to: VU/FEW (+ SARA) / ALGEMEEN / Amsterdam / THE NETHERLANDS
 SCM User ID: u7668
  
 AMS 2021.102  RunTime: Jan28-2022 11:20:31  ShM Nodes: 1  Procs: 4

 AMS jobname: 46.achiral_catalyst.H_tBu_SnCl4.TS
 AMS jobid  : 1776935712

 Start   directory: /scistor/tc/yhk800/MasterProject/calculations/achiral_catalyst_H_tBu_SnCl4/46.achiral_catalyst.H_tBu_SnCl4.TS/
 Results directory: /scistor/tc/yhk800/MasterProject/calculations/achiral_catalyst_H_tBu_SnCl4/46.achiral_catalyst.H_tBu_SnCl4.TS/
 Scratch directory: /scratch/5505/amstmp_46.achiral_catalyst.H_tBu_SnCl4.TS_kid0.1776935712/


 Communication costs MPI_COMM_WORLD:      0.963 usec per message,   0.0072 usec per 8-byte item
 Communication costs for intra-node:      1.649 usec per message,   0.0056 usec per 8-byte item

 RNG seed: -1701760582 -1017740592 -833493307 -266728859 -1900994671 -221719003 -478735337 -1376132233



                      ************************************************************************
                      *  ADF 2021.102  RunTime: Jan28-2022 11:20:32  ShM Nodes: 1  Procs: 4  *
                      ************************************************************************
  
       *****************************
       *  TRANSITION STATE SEARCH  *
       *****************************

Optimization Method                    Quasi Newton
Optimization Coordinates               Delocalized Coordinates
Optimize lattice                       F
 
 ------------------------------------------------------
 Convergence criteria (Hartree,Angstrom)
 ------------------------------------------------------
 Maximum gradient               0.001000000000
 Maximum rms gradient           0.000666666667
 Maximum step allowed           0.010000000000
 Maximum rms step allowed       0.006666666667
 Maximum energy change allowe   0.000290000000
 Maximum stress energy allowe   0.000500000000
 
Initial model Hessian                  Automatic Hessian
 
------------------------------------
Quasi-Newton Optimizer Parameters
------------------------------------
Hessian Update Method                  Bofill
Maximum number of steps                  250
First GDIIS cycle                          0
Maximum GDIIS vectors                      0
Trust radius (bohr)                        0.200000
Trust radius varies                        F
Constraints converged at all steps         T
Use projector                              T
 
 Rigid motions settings for: old optimizer
 Atomic rotations (x,y,z):     T T T
 Atomic translations (x,y,z):  T T T
 Tolerance:                   1.000000000000000E-006
 
           1  TSRC entries:
    i   type      a1    a2    a3    a4    coef
    1 Distance     2    10               -1.000
 
--------
Geometry
--------
Formula: C8H15Cl4OSn
Atoms
  Index Symbol   x (angstrom)   y (angstrom)   z (angstrom)
      1      H     0.19369716    -1.85361092    -0.24516176
      2      C    -0.92057816    -0.12292898     0.28183759
      3      C     0.21368396    -0.77846351    -0.06958517
      4      C     1.52168394    -0.13059856    -0.22805405
      5      O     2.57084417    -0.68022178    -0.54313771
      6      H    -0.93117356     0.95749943     0.37346659
      7      H    -1.16677948    -1.14795174     3.01281369
      8      H    -2.10496465     0.45730942     2.86041604
      9      H    -0.24714630     0.47546451     3.02589233
     10      C    -1.16197426    -0.07675120     2.85297480
     11      C    -2.70617814    -1.13198073    -1.13307527
     12      C    -2.27774025    -0.85018701     0.31024211
     13      C    -3.29814455     0.05623311     1.00544670
     14      C    -2.10857613    -2.16055035     1.08513774
     15      H    -1.77993511    -1.95738108     2.10497923
     16      H    -3.66728922    -1.64847593    -1.15378817
     17      H    -1.96534043    -1.75736397    -1.63248955
     18      H    -2.80193402    -0.19835583    -1.68853426
     19      H    -4.27589769    -0.42685762     1.04485445
     20      H    -3.39798001     0.99804667     0.46472548
     21      H    -2.97770152     0.27467949     2.02473899
     22      H    -3.05288672    -2.70596191     1.12678586
     23      H    -1.36362000    -2.79302204     0.60101043
     24      H     1.51741535     0.92352060    -0.04443873
     25     Sn     3.93691787     0.31396217    -0.73139533
     26     Cl     4.64812030    -1.00985654    -2.56167646
     27     Cl     5.15389144    -1.07804350     0.74831052
     28     Cl     3.22571544     1.63778087     1.09888580
     29     Cl     2.71994429     1.70596783    -2.21110118
 
Total System Charge             0.00000
 
 
----------------
ADF Engine Input
----------------
 
 NumericalQuality VeryGood
 SCF
 Converge 1.0e-6
 Iterations 99
 End
 SYMMETRY NOSYM
 SpinPolarization 1.0
 Unrestricted Yes
 XC
 GGA OLYP
 End
 basis
 core None
 type TZ2P
 End
 

 Title: *** (NO TITLE) ***

 Using automatic Hessian for delocalized coordinates.
 *** GOStep1 ***

 Energy gradients wrt nuclear displacements
 ==========================================

     Atom      Cartesian (a.u./angstrom)
                 X         Y         Z
 ----------------------------------------
     1 H    -0.002361 -0.003453 -0.001097
     2 C     0.023496  0.013013 -0.001246
     3 C    -0.081323  0.010680  0.013899
     4 C     0.214869 -0.001709 -0.031497
     5 O     0.338045  0.339381 -0.038928
     6 H    -0.003737 -0.006205  0.000945
     7 H    -0.013596 -0.026682 -0.022658
     8 H    -0.042320 -0.001303 -0.038439
     9 H    -0.004428 -0.000941 -0.000169
    10 C    -0.042800 -0.023033 -0.041939
    11 C    -0.002272 -0.001068  0.007712
    12 C    -0.018986 -0.016725 -0.018416
    13 C     0.023901  0.002439  0.016392
    14 C     0.010938  0.019311  0.009635
    15 H     0.017399  0.028976  0.029058
    16 H     0.003330  0.000840 -0.000499
    17 H     0.000949  0.001728  0.005061
    18 H     0.001741 -0.001667  0.006111
    19 H     0.004988 -0.000428  0.002061
    20 H     0.004507 -0.005544  0.001564
    21 H     0.047703  0.004882  0.043657
    22 H     0.002854  0.003616  0.002220
    23 H     0.004114  0.008137 -0.003130
    24 H     0.005890 -0.022277  0.001591
    25 Sn   -0.416163 -0.236734  0.068519
    26 Cl   -0.021007 -0.001058  0.019030
    27 Cl   -0.025418 -0.000385 -0.013237
    28 Cl   -0.027998 -0.047436 -0.041331
    29 Cl   -0.002317 -0.036356  0.025133
 ----------------------------------------
 Mulliken charges used for AMS results%charges...
           Primitive Internal Coordinates (atoms in internal order)
-------------------------------------------------------------------------------
    index    type      i       j       k       l   value(A,deg)     TSRC Vect
-------------------------------------------------------------------------------
       1     bnd       1       3       0       0     1.08957265     0.00000000
       2     bnd       2       6       0       0     1.08435865     0.00000000
       3     bnd       2      12       0       0     1.54000000    -0.00841300
       4     bnd       2       3       0       0     1.35638270     0.00000000
       5     bnd       3       4       0       0     1.46823204     0.00000000
       6     bnd       4      24       0       0     1.07000000    -0.00000000
       7     bnd       4       5       0       0     1.22560213     0.00000000
       8     bnd       5      25       0       0     1.70000000     0.00000000
       9     bnd       8      10       0       0     1.08374674    -0.00712836
      10     bnd       7      10       0       0     1.08307071    -0.00530995
      11     bnd       9      10       0       0     1.08247534    -0.00000000
      12     bnd      11      17       0       0     1.09057752    -0.00000000
      13     bnd      11      12       0       0     1.53170878     0.00000000
      14     bnd      12      14       0       0     1.53170879    -0.01050536
      15     bnd      12      13       0       0     1.53170878    -0.01362022
      16     bnd      13      19       0       0     1.09129777    -0.00000000
      17     bnd      13      21       0       0     1.09057752    -0.04308487
      18     bnd      14      22       0       0     1.09129777    -0.00000000
      19     bnd      14      15       0       0     1.09057752    -0.03932883
      20     bnd      11      16       0       0     1.09129777     0.00000000
      21     bnd      11      18       0       0     1.09057752    -0.00000000
      22     bnd      13      20       0       0     1.09057753     0.00000000
      23     bnd      14      23       0       0     1.09057752     0.00000000
      24     bnd       4      25       0       0     2.50685892    -0.00000000
      25     bnd      25      27       0       0     2.36817099     0.00000000
      26     bnd      25      29       0       0     2.36817099    -0.00000000
      27     bnd      25      26       0       0     2.36817100    -0.00000000
      28     bnd      25      28       0       0     2.36817100     0.00000000
      29     bnd       7      15       0       0     1.36209364    -0.03085990
      30     bnd       8      21       0       0     1.22203906    -0.03287133
      31     ang       6       2      12       0   117.41061246    -0.00000000
      32     ang       6       2       3       0   120.77103538    -0.00000000
      33     ang      12       2       3       0   120.89733876     0.00000000
      34     ang       1       3       2       0   120.21909900     0.00000000
      35     ang       1       3       4       0   115.74474309     0.00000000
      36     ang       2       3       4       0   124.03410402    -0.00000000
      37     ang       3       4      24       0   114.37019779    -0.00000000
      38     ang       3       4       5       0   126.33327002     0.00000000
      39     ang       3       4      25       0   163.38119183     0.00000000
      40     ang      24       4       5       0   119.29637471    -0.00000000
      41     ang      24       4      25       0    82.16002634    -0.00000000
      42     ang       5       4      25       0    37.17058570     0.00000000
      43     ang       4       5      25       0   117.00680806    -0.00000000
      44     ang      10       7      15       0   119.43110153     0.01106394
      45     ang      10       8      21       0   122.89272049     0.01286683
      46     ang       8      10       7       0   118.84988012    -0.00411492
      47     ang       8      10       9       0   118.87311123    -0.00658368
      48     ang       7      10       9       0   118.99448321    -0.00549185
      49     ang      17      11      12       0   110.30372147     0.00000000
      50     ang      17      11      16       0   108.55265565    -0.00000000
      51     ang      17      11      18       0   108.50099190    -0.00000000
      52     ang      12      11      16       0   110.56689159    -0.00000000
      53     ang      12      11      18       0   110.30372122     0.00000000
      54     ang      16      11      18       0   108.55265584    -0.00000000
      55     ang       2      12      11       0   108.42142155     0.04847580
      56     ang       2      12      14       0   108.42142138    -0.02580540
      57     ang       2      12      13       0   108.42142163    -0.02690602
      58     ang      11      12      14       0   110.50030803    -0.02126142
      59     ang      11      12      13       0   110.50030844    -0.02194200
      60     ang      14      12      13       0   110.50030810     0.04727065
      61     ang      12      13      19       0   110.56689169     0.00016065
      62     ang      12      13      21       0   110.30372120    -0.02078036
      63     ang      12      13      20       0   110.30372081     0.00943778
      64     ang      19      13      21       0   108.55265628     0.03169333
      65     ang      19      13      20       0   108.55265560    -0.00196474
      66     ang      21      13      20       0   108.50099212    -0.01826548
      67     ang      12      14      22       0   110.56689120    -0.00205677
      68     ang      12      14      15       0   110.30372073    -0.01984715
      69     ang      12      14      23       0   110.30372111     0.01122531
      70     ang      22      14      15       0   108.55265617     0.03417305
      71     ang      22      14      23       0   108.55265628    -0.00188086
      72     ang      15      14      23       0   108.50099221    -0.02135436
      73     ang      14      15       7       0   150.41554278    -0.08611095
      74     ang      13      21       8       0   151.51189577    -0.09075394
      75     ang       5      25      27       0    89.99999987     0.00000000
      76     ang       5      25      29       0    89.99999980    -0.00000000
      77     ang       5      25      26       0    89.99999986     0.00000000
      78     ang       5      25      28       0    90.00000000     0.00000000
      79     ang       4      25      27       0   105.39127673     0.00000000
      80     ang       4      25      29       0    74.60872298    -0.00000000
      81     ang       4      25      26       0   110.20552051     0.00000000
      82     ang       4      25      28       0    69.79447939     0.00000000
      83     ang      27      25      26       0    89.99999984    -0.00000000
      84     ang      27      25      28       0    90.00000002    -0.00000000
      85     ang      29      25      26       0    90.00000009     0.00000000
      86     ang      29      25      28       0    90.00000005    -0.00000000
      87     dih       6       2      12      11    97.82854891    -0.00048423
      88     dih       6       2      12      14   217.82854865    -0.01295263
      89     dih       6       2      12      13   -22.17145147     0.01343686
      90     dih       3       2      12      11   -71.27064345    -0.00048423
      91     dih       3       2      12      14    48.72935630    -0.01295263
      92     dih       3       2      12      13   168.72935617     0.01343686
      93     dih       6       2       3       1   185.43025046     0.00000000
      94     dih       6       2       3       4     5.97435318     0.00000000
      95     dih      12       2       3       1    -5.83693582     0.00000000
      96     dih      12       2       3       4   174.70716690     0.00000000
      97     dih       1       3       4      24   180.37552847     0.00000000
      98     dih       1       3       4       5     0.52197473     0.00000000
      99     dih       1       3       4      25     6.59180955     0.00000000
     100     dih       2       3       4      24    -0.14644617     0.00000000
     101     dih       2       3       4       5   180.00000148     0.00000000
     102     dih       2       3       4      25   186.06983491     0.00000000
     103     dih       3       4       5      25   177.13092032     0.00000000
     104     dih      24       4       5      25    -2.71611828     0.00000000
     105     dih       4       5      25      27   127.54000162     0.00000000
     106     dih       4       5      25      29   -52.45999844     0.00000000
     107     dih       4       5      25      26   217.54000146     0.00000000
     108     dih       4       5      25      28    37.54000160     0.00000000
     109     dih      21       8      10       7   -64.89060948    -0.04846506
     110     dih      21       8      10       9   135.76133749     0.00165511
     111     dih      15       7      10       8    64.25404055     0.05398918
     112     dih      15       7      10       9   223.57678807     0.00358044
     113     dih      17      11      12       2    59.92224995     0.00057907
     114     dih      17      11      12      14   -58.77116296     0.01491073
     115     dih      17      11      12      13   178.61566341    -0.01548980
     116     dih      16      11      12       2   180.00000000     0.00057907
     117     dih      16      11      12      14    61.30658712     0.01491073
     118     dih      16      11      12      13   -61.30658651    -0.01548980
     119     dih      18      11      12       2   -59.92224980     0.00057907
     120     dih      18      11      12      14   181.38433729     0.01491073
     121     dih      18      11      12      13    58.77116366    -0.01548980
     122     dih       2      12      14      22   179.99999915    -0.03039783
     123     dih       2      12      14      15    59.92224993    -0.05884902
     124     dih       2      12      14      23   -59.92224967    -0.02679816
     125     dih      11      12      14      22   -61.30658704     0.00047305
     126     dih      11      12      14      15   178.61566296    -0.02797813
     127     dih      11      12      14      23    58.77116335     0.00407272
     128     dih      13      12      14      22    61.30658678    -0.00957018
     129     dih      13      12      14      15   -58.77116322    -0.03802136
     130     dih      13      12      14      23   181.38433718    -0.00597050
     131     dih       2      12      13      19   179.99999915     0.02851118
     132     dih       2      12      13      21   -59.92224944     0.05469386
     133     dih       2      12      13      20    59.92225015     0.02474432
     134     dih      11      12      13      19    61.30658640    -0.00129226
     135     dih      11      12      13      21   181.38433715     0.02489043
     136     dih      11      12      13      20   -58.77116326    -0.00505911
     137     dih      14      12      13      19   -61.30658719     0.00835329
     138     dih      14      12      13      21    58.77116356     0.03453597
     139     dih      14      12      13      20   178.61566315     0.00458643
     140     dih      12      13      21       8    31.37418389     0.00928867
     141     dih      19      13      21       8   152.65821231     0.01683841
     142     dih      20      13      21       8   -89.55318409     0.02193927
     143     dih      12      14      15       7   -23.92743686    -0.01378839
     144     dih      22      14      15       7   214.78853567    -0.02076142
     145     dih      23      14      15       7    96.99993126    -0.02562224
     146     dih       3       4      25       5    -8.10496260     0.00000000
     147     dih       3       4      25      27   -63.43311736     0.00000000
     148     dih       3       4      25      29   116.56688246     0.00000000
     149     dih       3       4      25      26    32.38173577     0.00000000
     150     dih       3       4      25      28   212.38173596     0.00000000
     151     dih      24       4      25       5   177.60912466     0.00000000
     152     dih      24       4      25      27   122.28096991     0.00000000
     153     dih      24       4      25      29   -57.71903028     0.00000000
     154     dih      24       4      25      26   218.09582304     0.00000000
     155     dih      24       4      25      28    38.09582323     0.00000000
     156     dih       5       4      25      27   -55.32815476     0.00000000
     157     dih       5       4      25      29   124.67184506     0.00000000
     158     dih       5       4      25      26    40.48669838     0.00000000
     159     dih       5       4      25      28   220.48669856     0.00000000
     160     dih      10       7      15      14    27.97958941     0.00097742
     161     dih      10       8      21      13   -35.32547570     0.00079617
     162     bnd       2      10       0       0     2.58285714    -0.61594090
Hessian eigenvector     1(    -0.036) has overlap with TSRC:    0.64765E+00
Hessian eigenvector     1 has the largest overlap with TSRC:  0.64765
           Primitive Internal Coordinates (atoms in internal order)
-------------------------------------------------------------------------------
    index    type      i       j       k       l   value(A,deg)     Max Ovl Vect
-------------------------------------------------------------------------------
       1     bnd       1       3       0       0     1.08957265     0.00000000
       2     bnd       2       6       0       0     1.08435865     0.00000000
       3     bnd       2      12       0       0     1.54000000     0.00218219
       4     bnd       2       3       0       0     1.35638270     0.00000000
       5     bnd       3       4       0       0     1.46823204    -0.00000000
       6     bnd       4      24       0       0     1.07000000    -0.00000000
       7     bnd       4       5       0       0     1.22560213     0.00000000
       8     bnd       5      25       0       0     1.70000000     0.00000000
       9     bnd       8      10       0       0     1.08374674     0.00147958
      10     bnd       7      10       0       0     1.08307071     0.00108111
      11     bnd       9      10       0       0     1.08247534     0.00000000
      12     bnd      11      17       0       0     1.09057752    -0.00000000
      13     bnd      11      12       0       0     1.53170878     0.00000000
      14     bnd      12      14       0       0     1.53170879     0.00289544
      15     bnd      12      13       0       0     1.53170878     0.00396885
      16     bnd      13      19       0       0     1.09129777    -0.00000000
      17     bnd      13      21       0       0     1.09057752     0.01140658
      18     bnd      14      22       0       0     1.09129777     0.00000000
      19     bnd      14      15       0       0     1.09057752     0.00998691
      20     bnd      11      16       0       0     1.09129777    -0.00000000
      21     bnd      11      18       0       0     1.09057752     0.00000000
      22     bnd      13      20       0       0     1.09057753     0.00000000
      23     bnd      14      23       0       0     1.09057752     0.00000000
      24     bnd       4      25       0       0     2.50685892     0.00000000
      25     bnd      25      27       0       0     2.36817099    -0.00000000
      26     bnd      25      29       0       0     2.36817099     0.00000000
      27     bnd      25      26       0       0     2.36817100    -0.00000000
      28     bnd      25      28       0       0     2.36817100     0.00000000
      29     bnd       7      15       0       0     1.36209364     0.02098893
      30     bnd       8      21       0       0     1.22203906     0.01936461
      31     ang       6       2      12       0   117.41061246    -0.00000000
      32     ang       6       2       3       0   120.77103538    -0.00000000
      33     ang      12       2       3       0   120.89733876     0.00000000
      34     ang       1       3       2       0   120.21909900    -0.00000000
      35     ang       1       3       4       0   115.74474309    -0.00000000
      36     ang       2       3       4       0   124.03410402     0.00000000
      37     ang       3       4      24       0   114.37019779     0.00000000
      38     ang       3       4       5       0   126.33327002    -0.00000000
      39     ang       3       4      25       0   163.38119183    -0.00000000
      40     ang      24       4       5       0   119.29637471    -0.00000000
      41     ang      24       4      25       0    82.16002634    -0.00000000
      42     ang       5       4      25       0    37.17058570    -0.00000000
      43     ang       4       5      25       0   117.00680806     0.00000000
      44     ang      10       7      15       0   119.43110153     0.01426577
      45     ang      10       8      21       0   122.89272049     0.01900162
      46     ang       8      10       7       0   118.84988012     0.01947415
      47     ang       8      10       9       0   118.87311123     0.01049296
      48     ang       7      10       9       0   118.99448321     0.01026597
      49     ang      17      11      12       0   110.30372147     0.00000000
      50     ang      17      11      16       0   108.55265565     0.00000000
      51     ang      17      11      18       0   108.50099190    -0.00000000
      52     ang      12      11      16       0   110.56689159     0.00000000
      53     ang      12      11      18       0   110.30372122    -0.00000000
      54     ang      16      11      18       0   108.55265584    -0.00000000
      55     ang       2      12      11       0   108.42142155    -0.04508239
      56     ang       2      12      14       0   108.42142138     0.02813116
      57     ang       2      12      13       0   108.42142163     0.03104610
      58     ang      11      12      14       0   110.50030803     0.01088552
      59     ang      11      12      13       0   110.50030844     0.01082174
      60     ang      14      12      13       0   110.50030810    -0.03524179
      61     ang      12      13      19       0   110.56689169    -0.01201846
      62     ang      12      13      21       0   110.30372120     0.02852668
      63     ang      12      13      20       0   110.30372081     0.00013409
      64     ang      19      13      21       0   108.55265628    -0.03278900
      65     ang      19      13      20       0   108.55265560    -0.00260057
      66     ang      21      13      20       0   108.50099212     0.01832409
      67     ang      12      14      22       0   110.56689120    -0.00948296
      68     ang      12      14      15       0   110.30372073     0.02270325
      69     ang      12      14      23       0   110.30372111     0.00003664
      70     ang      22      14      15       0   108.55265617    -0.03187712
      71     ang      22      14      23       0   108.55265628    -0.00207001
      72     ang      15      14      23       0   108.50099221     0.02037455
      73     ang      14      15       7       0   150.41554278     0.13283604
      74     ang      13      21       8       0   151.51189577     0.13336886
      75     ang       5      25      27       0    89.99999987    -0.00000000
      76     ang       5      25      29       0    89.99999980     0.00000000
      77     ang       5      25      26       0    89.99999986     0.00000000
      78     ang       5      25      28       0    90.00000000     0.00000000
      79     ang       4      25      27       0   105.39127673    -0.00000000
      80     ang       4      25      29       0    74.60872298     0.00000000
      81     ang       4      25      26       0   110.20552051     0.00000000
      82     ang       4      25      28       0    69.79447939     0.00000000
      83     ang      27      25      26       0    89.99999984     0.00000000
      84     ang      27      25      28       0    90.00000002    -0.00000000
      85     ang      29      25      26       0    90.00000009     0.00000000
      86     ang      29      25      28       0    90.00000005     0.00000000
      87     dih       6       2      12      11    97.82854891     0.00053499
      88     dih       6       2      12      14   217.82854865     0.00383550
      89     dih       6       2      12      13   -22.17145147    -0.00437049
      90     dih       3       2      12      11   -71.27064345     0.00053499
      91     dih       3       2      12      14    48.72935630     0.00383550
      92     dih       3       2      12      13   168.72935617    -0.00437049
      93     dih       6       2       3       1   185.43025046     0.00000000
      94     dih       6       2       3       4     5.97435318     0.00000000
      95     dih      12       2       3       1    -5.83693582    -0.00000000
      96     dih      12       2       3       4   174.70716690    -0.00000000
      97     dih       1       3       4      24   180.37552847    -0.00000000
      98     dih       1       3       4       5     0.52197473    -0.00000000
      99     dih       1       3       4      25     6.59180955    -0.00000000
     100     dih       2       3       4      24    -0.14644617    -0.00000000
     101     dih       2       3       4       5   180.00000148    -0.00000000
     102     dih       2       3       4      25   186.06983491    -0.00000000
     103     dih       3       4       5      25   177.13092032    -0.00000000
     104     dih      24       4       5      25    -2.71611828    -0.00000000
     105     dih       4       5      25      27   127.54000162    -0.00000000
     106     dih       4       5      25      29   -52.45999844    -0.00000000
     107     dih       4       5      25      26   217.54000146    -0.00000000
     108     dih       4       5      25      28    37.54000160     0.00000000
     109     dih      21       8      10       7   -64.89060948     0.13053161
     110     dih      21       8      10       9   135.76133749     0.00668728
     111     dih      15       7      10       8    64.25404055    -0.13729067
     112     dih      15       7      10       9   223.57678807    -0.01324405
     113     dih      17      11      12       2    59.92224995    -0.00117059
     114     dih      17      11      12      14   -58.77116296    -0.01433480
     115     dih      17      11      12      13   178.61566341     0.01550402
     116     dih      16      11      12       2   180.00000000    -0.00117059
     117     dih      16      11      12      14    61.30658712    -0.01433480
     118     dih      16      11      12      13   -61.30658651     0.01550402
     119     dih      18      11      12       2   -59.92224980    -0.00117059
     120     dih      18      11      12      14   181.38433729    -0.01433480
     121     dih      18      11      12      13    58.77116366     0.01550402
     122     dih       2      12      14      22   179.99999915     0.07022718
     123     dih       2      12      14      15    59.92224993     0.10140501
     124     dih       2      12      14      23   -59.92224967     0.06155300
     125     dih      11      12      14      22   -61.30658704     0.03883854
     126     dih      11      12      14      15   178.61566296     0.07001637
     127     dih      11      12      14      23    58.77116335     0.03016437
     128     dih      13      12      14      22    61.30658678     0.03591653
     129     dih      13      12      14      15   -58.77116322     0.06709436
     130     dih      13      12      14      23   181.38433718     0.02724235
     131     dih       2      12      13      19   179.99999915    -0.06784376
     132     dih       2      12      13      21   -59.92224944    -0.09802146
     133     dih       2      12      13      20    59.92225015    -0.05693570
     134     dih      11      12      13      19    61.30658640    -0.03819168
     135     dih      11      12      13      21   181.38433715    -0.06836939
     136     dih      11      12      13      20   -58.77116326    -0.02728362
     137     dih      14      12      13      19   -61.30658719    -0.03530694
     138     dih      14      12      13      21    58.77116356    -0.06548464
     139     dih      14      12      13      20   178.61566315    -0.02439888
     140     dih      12      13      21       8    31.37418389    -0.02230646
     141     dih      19      13      21       8   152.65821231    -0.04038119
     142     dih      20      13      21       8   -89.55318409    -0.05149937
     143     dih      12      14      15       7   -23.92743686     0.03517736
     144     dih      22      14      15       7   214.78853567     0.05314333
     145     dih      23      14      15       7    96.99993126     0.06198346
     146     dih       3       4      25       5    -8.10496260    -0.00000000
     147     dih       3       4      25      27   -63.43311736    -0.00000000
     148     dih       3       4      25      29   116.56688246    -0.00000000
     149     dih       3       4      25      26    32.38173577    -0.00000000
     150     dih       3       4      25      28   212.38173596    -0.00000000
     151     dih      24       4      25       5   177.60912466    -0.00000000
     152     dih      24       4      25      27   122.28096991    -0.00000000
     153     dih      24       4      25      29   -57.71903028    -0.00000000
     154     dih      24       4      25      26   218.09582304    -0.00000000
     155     dih      24       4      25      28    38.09582323    -0.00000000
     156     dih       5       4      25      27   -55.32815476    -0.00000000
     157     dih       5       4      25      29   124.67184506    -0.00000000
     158     dih       5       4      25      26    40.48669838    -0.00000000
     159     dih       5       4      25      28   220.48669856    -0.00000000
     160     dih      10       7      15      14    27.97958941    -0.01374500
     161     dih      10       8      21      13   -35.32547570     0.00535002
     162     bnd       2      10       0       0     2.58285714     0.91592106
 
----------------------------------------------------------------------
Geometry Convergence after Step   1       (Hartree/Angstrom,Angstrom)
----------------------------------------------------------------------
current energy                               -5.01246072 Hartree
energy change                      -5.01246072     0.00029000    F
constrained gradient max            0.41615183     0.00100000    F
constrained gradient rms            0.07925047     0.00066667    F
gradient max                        0.41615183
gradient rms                        0.07925047
cart. step max                      0.09001544     0.01000000    F
cart. step rms                      0.03537009     0.00666667    F
 
 
--------
Geometry
--------
Formula: C8H15Cl4OSn
Atoms
  Index Symbol   x (angstrom)   y (angstrom)   z (angstrom)
      1      H     0.19676262    -1.89034016    -0.23864866
      2      C    -0.93553900    -0.16176207     0.27836768
      3      C     0.20451732    -0.81525238    -0.06436911
      4      C     1.49802860    -0.15029005    -0.21163473
      5      O     2.54835741    -0.70411803    -0.52029166
      6      H    -0.93830344     0.91971466     0.36648064
      7      H    -1.12955149    -1.14762268     2.98458968
      8      H    -2.02437168     0.47715958     2.82458418
      9      H    -0.15713086     0.45181152     2.96941030
     10      C    -1.09023718    -0.07675900     2.81856148
     11      C    -2.74808188    -1.15027414    -1.13425844
     12      C    -2.30306985    -0.86756689     0.30611521
     13      C    -3.29733114     0.07343604     0.99517740
     14      C    -2.16009560    -2.17838665     1.08898029
     15      H    -1.80202117    -1.96913318     2.09903197
     16      H    -3.72151949    -1.64437360    -1.14253762
     17      H    -2.02764981    -1.79714261    -1.63682248
     18      H    -2.82812869    -0.21995170    -1.69874469
     19      H    -4.28712250    -0.38324176     1.05649530
     20      H    -3.38192654     1.01003849     0.44155174
     21      H    -2.94569972     0.30117113     2.00410096
     22      H    -3.11882305    -2.69697802     1.15146461
     23      H    -1.44238791    -2.84006031     0.60259424
     24      H     1.48183680     0.90670217    -0.03070045
     25     Sn     3.93330727     0.33373703    -0.70337382
     26     Cl     4.70844008    -0.93656784    -2.54861677
     27     Cl     5.20569864    -1.01871581     0.77027635
     28     Cl     3.30372449     1.69959974     1.13336933
     29     Cl     2.75439149     1.76706743    -2.18107220
 
Total System Charge             0.00000
 
 *** GOStep2 ***

 Energy gradients wrt nuclear displacements
 ==========================================

     Atom      Cartesian (a.u./angstrom)
                 X         Y         Z
 ----------------------------------------
     1 H    -0.002061 -0.002793 -0.000976
     2 C     0.024318  0.010427 -0.004692
     3 C    -0.073576  0.007532  0.012869
     4 C     0.201359  0.000816 -0.031171
     5 O     0.252415  0.279524 -0.026019
     6 H    -0.003446 -0.005573  0.002430
     7 H    -0.015567 -0.026149 -0.020382
     8 H    -0.042602 -0.000874 -0.034169
     9 H    -0.002794 -0.000296 -0.000971
    10 C    -0.036493 -0.019305 -0.033003
    11 C    -0.003536 -0.001543  0.007490
    12 C    -0.018296 -0.015703 -0.014811
    13 C     0.020680  0.002864  0.011376
    14 C     0.009705  0.014810  0.006911
    15 H     0.019547  0.028539  0.026217
    16 H     0.002812  0.000627 -0.000722
    17 H     0.000699  0.001699  0.004397
    18 H     0.001512 -0.001390  0.005202
    19 H     0.003704 -0.000592  0.000837
    20 H     0.003780 -0.004397  0.001526
    21 H     0.048084  0.004092  0.039101
    22 H     0.002255  0.002524  0.001175
    23 H     0.003152  0.006760 -0.001742
    24 H     0.001317 -0.022858 -0.001270
    25 Sn   -0.341482 -0.193547  0.054213
    26 Cl   -0.016923 -0.001580  0.015319
    27 Cl   -0.020997  0.000655 -0.010730
    28 Cl   -0.016677 -0.034878 -0.027923
    29 Cl   -0.000889 -0.029392  0.019514
 ----------------------------------------
 Mulliken charges used for AMS results%charges...
Hessian eigenvector     1(    -0.036) has overlap with TSRC:    0.63783E+00
Hessian eigenvector     1 has the largest overlap with TSRC:  0.63783
           Primitive Internal Coordinates (atoms in internal order)
-------------------------------------------------------------------------------
    index    type      i       j       k       l   value(A,deg)     Max Ovl Vect
-------------------------------------------------------------------------------
       1     bnd       1       3       0       0     1.08914978     0.00018036
       2     bnd       2       6       0       0     1.08506380    -0.00110421
       3     bnd       2      12       0       0     1.53917867     0.00623236
       4     bnd       2       3       0       0     1.35803038    -0.00807453
       5     bnd       3       4       0       0     1.46185960     0.01242694
       6     bnd       4      24       0       0     1.07248867    -0.01044560
       7     bnd       4       5       0       0     1.22685987    -0.03042083
       8     bnd       5      25       0       0     1.74032994    -0.01064734
       9     bnd       8      10       0       0     1.08603376     0.00173675
      10     bnd       7      10       0       0     1.08437079     0.00040361
      11     bnd       9      10       0       0     1.08297255     0.00115914
      12     bnd      11      17       0       0     1.09088579    -0.00091543
      13     bnd      11      12       0       0     1.53383029    -0.00249879
      14     bnd      12      14       0       0     1.53348225     0.00214286
      15     bnd      12      13       0       0     1.53259542     0.00000480
      16     bnd      13      19       0       0     1.09178818     0.00038540
      17     bnd      13      21       0       0     1.09244435     0.01182774
      18     bnd      14      22       0       0     1.09178735     0.00030142
      19     bnd      14      15       0       0     1.09188310     0.01005410
      20     bnd      11      16       0       0     1.09168841    -0.00035017
      21     bnd      11      18       0       0     1.09112421    -0.00057365
      22     bnd      13      20       0       0     1.09127535    -0.00029546
      23     bnd      14      23       0       0     1.09063640    -0.00156306
      24     bnd       4      25       0       0     2.53114040    -0.01832666
      25     bnd      25      27       0       0     2.37060189    -0.00326906
      26     bnd      25      29       0       0     2.37231342    -0.00261975
      27     bnd      25      26       0       0     2.37053304    -0.00114746
      28     bnd      25      28       0       0     2.37393782     0.00329299
      29     bnd       7      15       0       0     1.38250043    -0.02173911
      30     bnd       8      21       0       0     1.24619823    -0.02601444
      31     ang       6       2      12       0   116.95662985    -0.00340412
      32     ang       6       2       3       0   120.14876548     0.00191004
      33     ang      12       2       3       0   121.98937306     0.00562957
      34     ang       1       3       2       0   120.62377747    -0.00177410
      35     ang       1       3       4       0   116.05168921     0.00004157
      36     ang       2       3       4       0   123.32262783     0.00171436
      37     ang       3       4      24       0   114.70509605    -0.00638865
      38     ang       3       4       5       0   125.27675721    -0.00125719
      39     ang       3       4      25       0   163.31232206    -0.00525828
      40     ang      24       4       5       0   120.01752711     0.00762473
      41     ang      24       4      25       0    81.88474305     0.01127464
      42     ang       5       4      25       0    38.16448247    -0.00385978
      43     ang       4       5      25       0   116.01149327     0.01107529
      44     ang      10       7      15       0   120.42299409     0.00287655
      45     ang      10       8      21       0   124.07153968     0.01054617
      46     ang       8      10       7       0   118.14154364     0.02724347
      47     ang       8      10       9       0   119.43240207     0.00772988
      48     ang       7      10       9       0   119.46590520     0.00809638
      49     ang      17      11      12       0   110.50638616    -0.00213970
      50     ang      17      11      16       0   108.48158643     0.00039005
      51     ang      17      11      18       0   108.40302153     0.00062014
      52     ang      12      11      16       0   110.44127531     0.00305592
      53     ang      12      11      18       0   110.48454647    -0.00236824
      54     ang      16      11      18       0   108.45510229     0.00048220
      55     ang       2      12      11       0   108.98775844    -0.03460181
      56     ang       2      12      14       0   108.56268942     0.02976078
      57     ang       2      12      13       0   107.63482336     0.01691566
      58     ang      11      12      14       0   110.42049142     0.00942801
      59     ang      11      12      13       0   110.31354488     0.00906744
      60     ang      14      12      13       0   110.84228165    -0.03009005
      61     ang      12      13      19       0   110.88933742    -0.01403904
      62     ang      12      13      21       0   109.53675805     0.02689678
      63     ang      12      13      20       0   110.43626286     0.00069698
      64     ang      19      13      21       0   109.09489648    -0.03116781
      65     ang      19      13      20       0   108.49447114    -0.00228557
      66     ang      21      13      20       0   108.33476161     0.01958176
      67     ang      12      14      22       0   110.69351673    -0.01059604
      68     ang      12      14      15       0   109.81669075     0.02327617
      69     ang      12      14      23       0   110.62667620     0.00139138
      70     ang      22      14      15       0   109.02995719    -0.03179434
      71     ang      22      14      23       0   108.37375587    -0.00232583
      72     ang      15      14      23       0   108.24034664     0.01970770
      73     ang      14      15       7       0   149.98989283     0.14364455
      74     ang      13      21       8       0   151.09931499     0.14503513
      75     ang       5      25      27       0    91.23262264     0.00360414
      76     ang       5      25      29       0    91.74040103     0.00280736
      77     ang       5      25      26       0    91.29113666    -0.00103522
      78     ang       5      25      28       0    92.90459079     0.05111741
      79     ang       4      25      27       0   106.65111206     0.00141994
      80     ang       4      25      29       0    76.02048017     0.00422360
      81     ang       4      25      26       0   111.30633353    -0.00691775
      82     ang       4      25      28       0    72.81545380     0.06299795
      83     ang      27      25      26       0    90.15235321    -0.00448362
      84     ang      27      25      28       0    89.40565499    -0.02395425
      85     ang      29      25      26       0    90.08018620     0.00543950
      86     ang      29      25      28       0    90.14441429     0.02299838
      87     dih       6       2      12      11    97.61766684     0.01537546
      88     dih       6       2      12      14   217.93462486     0.02391100
      89     dih       6       2      12      13   -22.02695914     0.01468346
      90     dih       3       2      12      11   -71.49852293    -0.00900912
      91     dih       3       2      12      14    48.81843508    -0.00047358
      92     dih       3       2      12      13   168.85685109    -0.00970112
      93     dih       6       2       3       1   185.28545757    -0.00609460
      94     dih       6       2       3       4     5.80777411    -0.00368815
      95     dih      12       2       3       1    -5.93776038     0.01855243
      96     dih      12       2       3       4   174.58455616     0.02095889
      97     dih       1       3       4      24   180.27764549    -0.00509825
      98     dih       1       3       4       5     0.56556404     0.00470762
      99     dih       1       3       4      25     6.80435502     0.00694874
     100     dih       2       3       4      24    -0.22265483    -0.00741642
     101     dih       2       3       4       5   180.06526372     0.00238944
     102     dih       2       3       4      25   186.30405471     0.00463056
     103     dih       3       4       5      25   177.10526182    -0.00219429
     104     dih      24       4       5      25    -2.59265469     0.00806697
     105     dih       4       5      25      27   127.84229296     0.00602878
     106     dih       4       5      25      29   -51.85801255     0.00698466
     107     dih       4       5      25      26   218.02250588     0.00154516
     108     dih       4       5      25      28    38.37498662     0.02998304
     109     dih      21       8      10       7   -63.16811389     0.11629156
     110     dih      21       8      10       9   136.38880589    -0.01568220
     111     dih      15       7      10       8    62.54341561    -0.11848317
     112     dih      15       7      10       9   222.97977495     0.01358251
     113     dih      17      11      12       2    60.42506819     0.00370490
     114     dih      17      11      12      14   -58.74091173    -0.01696875
     115     dih      17      11      12      13   178.39469458     0.00853450
     116     dih      16      11      12       2   180.46414552     0.00477594
     117     dih      16      11      12      14    61.29816560    -0.01589771
     118     dih      16      11      12      13   -61.56622809     0.00960554
     119     dih      18      11      12       2   -59.54394667     0.00581388
     120     dih      18      11      12      14   181.29007340    -0.01485977
     121     dih      18      11      12      13    58.42567971     0.01064348
     122     dih       2      12      14      22   178.59758397     0.07019615
     123     dih       2      12      14      15    58.15943818     0.10161730
     124     dih       2      12      14      23   -61.25566383     0.06136272
     125     dih      11      12      14      22   -61.97888378     0.05170305
     126     dih      11      12      14      15   177.58297043     0.08312420
     127     dih      11      12      14      23    58.16786843     0.04286963
     128     dih      13      12      14      22    60.57641970     0.04908112
     129     dih      13      12      14      15   -59.86172609     0.08050227
     130     dih      13      12      14      23   180.72317190     0.04024769
     131     dih       2      12      13      19   180.81081279    -0.07433603
     132     dih       2      12      13      21   -58.72736475    -0.10485004
     133     dih       2      12      13      20    60.50970143    -0.06288266
     134     dih      11      12      13      19    62.01253673    -0.04781557
     135     dih      11      12      13      21   182.47435918    -0.07832957
     136     dih      11      12      13      20   -58.28857464    -0.03636220
     137     dih      14      12      13      19   -60.60488118    -0.04540432
     138     dih      14      12      13      21    59.85694127    -0.07591833
     139     dih      14      12      13      20   179.09400745    -0.03395096
     140     dih      12      13      21       8    31.18243974    -0.02085973
     141     dih      19      13      21       8   152.73061776    -0.04139819
     142     dih      20      13      21       8   -89.34168230    -0.05054207
     143     dih      12      14      15       7   -24.21233125     0.03393761
     144     dih      22      14      15       7   214.34694062     0.05286857
     145     dih      23      14      15       7    96.65296013     0.06233824
     146     dih       3       4      25       5    -8.25468247    -0.00385799
     147     dih       3       4      25      27   -63.74953621     0.00227447
     148     dih       3       4      25      29   117.63827980     0.00558237
     149     dih       3       4      25      26    33.12094445    -0.00431488
     150     dih       3       4      25      28   212.21003999     0.00965798
     151     dih      24       4      25       5   177.73256615     0.00734323
     152     dih      24       4      25      27   122.23771241     0.01347568
     153     dih      24       4      25      29   -56.37447158     0.01678358
     154     dih      24       4      25      26   219.10819306     0.00688634
     155     dih      24       4      25      28    38.19728861     0.02085919
     156     dih       5       4      25      27   -55.49485374     0.00613245
     157     dih       5       4      25      29   125.89296228     0.00944035
     158     dih       5       4      25      26    41.37562692    -0.00045689
     159     dih       5       4      25      28   220.46472246     0.01351596
     160     dih      10       7      15      14    28.51141404    -0.02528925
     161     dih      10       8      21      13   -35.71363787     0.00543400
     162     bnd       2      10       0       0     2.54631922     0.90049443
 
----------------------------------------------------------------------
Geometry Convergence after Step   2       (Hartree/Angstrom,Angstrom)
----------------------------------------------------------------------
current energy                               -5.04803105 Hartree
energy change                      -0.03557033     0.00029000    F
constrained gradient max            0.34147059     0.00100000    F
constrained gradient rms            0.06498885     0.00066667    F
gradient max                        0.34147059
gradient rms                        0.06498885
cart. step max                      0.07118850     0.01000000    F
cart. step rms                      0.02657361     0.00666667    F
 
 
--------
Geometry
--------
Formula: C8H15Cl4OSn
Atoms
  Index Symbol   x (angstrom)   y (angstrom)   z (angstrom)
      1      H     0.20161103    -1.92715926    -0.22256124
      2      C    -0.94361371    -0.19463530     0.28426518
      3      C     0.20058368    -0.85164006    -0.05361256
      4      C     1.47734614    -0.17530372    -0.20030649
      5      O     2.53526669    -0.73941443    -0.50646397
      6      H    -0.93565874     0.88863995     0.36134887
      7      H    -1.09928277    -1.14634502     2.97259817
      8      H    -1.96052758     0.49003509     2.81067208
      9      H    -0.08718720     0.43591548     2.97021751
     10      C    -1.03006986    -0.07412819     2.81568759
     11      C    -2.76528051    -1.15306941    -1.14027242
     12      C    -2.32085346    -0.87722765     0.30448141
     13      C    -3.30181860     0.08574964     0.98676124
     14      C    -2.20744430    -2.19133593     1.09030953
     15      H    -1.82806745    -1.98227725     2.09410564
     16      H    -3.74889759    -1.62764604    -1.14863381
     17      H    -2.05856050    -1.81599805    -1.64259263
     18      H    -2.82727469    -0.22355656    -1.70964532
     19      H    -4.29951123    -0.35232122     1.06043719
     20      H    -3.37538018     1.01922612     0.42490663
     21      H    -2.93095593     0.31900086     1.98951947
     22      H    -3.17911195    -2.68431474     1.16521561
     23      H    -1.51357640    -2.87756813     0.60217727
     24      H     1.45707334     0.88777249    -0.02310872
     25     Sn     3.93305078     0.34773661    -0.69310148
     26     Cl     4.76899262    -0.87479993    -2.54726576
     27     Cl     5.26044344    -0.95309269     0.78367671
     28     Cl     3.29851086     1.73932019     1.12808826
     29     Cl     2.77626783     1.80033807    -2.17682324
 
Total System Charge             0.00000
 
 *** GOStep3 ***

 Energy gradients wrt nuclear displacements
 ==========================================

     Atom      Cartesian (a.u./angstrom)
                 X         Y         Z
 ----------------------------------------
     1 H    -0.001332 -0.002195 -0.001055
     2 C     0.021476  0.008881 -0.004172
     3 C    -0.060930  0.004924  0.010234
     4 C     0.168112  0.008117 -0.024497
     5 O     0.201581  0.220154 -0.022039
     6 H    -0.003231 -0.004498  0.002750
     7 H    -0.017002 -0.024898 -0.017988
     8 H    -0.041357 -0.000856 -0.029628
     9 H    -0.001808 -0.000062 -0.000985
    10 C    -0.026496 -0.013871 -0.024685
    11 C    -0.003579 -0.001415  0.006972
    12 C    -0.016794 -0.013570 -0.012571
    13 C     0.014970  0.002368  0.007612
    14 C     0.007329  0.010965  0.004908
    15 H     0.020378  0.026955  0.023205
    16 H     0.002417  0.000442 -0.000675
    17 H     0.000657  0.001366  0.003359
    18 H     0.001196 -0.001098  0.004043
    19 H     0.002415 -0.000313  0.000124
    20 H     0.003145 -0.003407  0.001294
    21 H     0.045951  0.003343  0.034299
    22 H     0.001759  0.001540  0.000367
    23 H     0.002776  0.005371 -0.001139
    24 H    -0.000648 -0.016440  0.000146
    25 Sn   -0.276550 -0.155965  0.045541
    26 Cl   -0.013890 -0.001579  0.011891
    27 Cl   -0.016936 -0.000518 -0.008541
    28 Cl   -0.013717 -0.029801 -0.024845
    29 Cl    0.000109 -0.023941  0.016073
 ----------------------------------------
 Mulliken charges used for AMS results%charges...
Hessian eigenvector     1(    -0.035) has overlap with TSRC:    0.64081E+00
Hessian eigenvector     1 has the largest overlap with TSRC:  0.64081
           Primitive Internal Coordinates (atoms in internal order)
-------------------------------------------------------------------------------
    index    type      i       j       k       l   value(A,deg)     Max Ovl Vect
-------------------------------------------------------------------------------
       1     bnd       1       3       0       0     1.08870853     0.00017272
       2     bnd       2       6       0       0     1.08604348    -0.00101932
       3     bnd       2      12       0       0     1.53724765     0.00633779
       4     bnd       2       3       0       0     1.36198543    -0.00723121
       5     bnd       3       4       0       0     1.45226455     0.01206686
       6     bnd       4      24       0       0     1.07793370    -0.00810422
       7     bnd       4       5       0       0     1.23739613    -0.02457965
       8     bnd       5      25       0       0     1.78059859    -0.01190410
       9     bnd       8      10       0       0     1.08814380     0.00349698
      10     bnd       7      10       0       0     1.08584543     0.00176010
      11     bnd       9      10       0       0     1.08307514     0.00120607
      12     bnd      11      17       0       0     1.09144544    -0.00075042
      13     bnd      11      12       0       0     1.53652780    -0.00250605
      14     bnd      12      14       0       0     1.53533972     0.00128486
      15     bnd      12      13       0       0     1.53464120    -0.00042313
      16     bnd      13      19       0       0     1.09211941     0.00052407
      17     bnd      13      21       0       0     1.09428941     0.01295967
      18     bnd      14      22       0       0     1.09214332     0.00038083
      19     bnd      14      15       0       0     1.09326985     0.01066341
      20     bnd      11      16       0       0     1.09215176    -0.00040418
      21     bnd      11      18       0       0     1.09179802    -0.00048111
      22     bnd      13      20       0       0     1.09200285    -0.00024582
      23     bnd      14      23       0       0     1.09116470    -0.00141996
      24     bnd       4      25       0       0     2.55869173    -0.02132107
      25     bnd      25      27       0       0     2.37381591    -0.00289144
      26     bnd      25      29       0       0     2.37689463    -0.00315092
      27     bnd      25      26       0       0     2.37304015    -0.00117996
      28     bnd      25      28       0       0     2.37820896     0.00087504
      29     bnd       7      15       0       0     1.41479996    -0.01494830
      30     bnd       8      21       0       0     1.28268294    -0.01972012
      31     ang       6       2      12       0   116.64956842    -0.00462953
      32     ang       6       2       3       0   119.51241700     0.00092992
      33     ang      12       2       3       0   122.80061944     0.00582379
      34     ang       1       3       2       0   121.05319052    -0.00065675
      35     ang       1       3       4       0   116.33155886    -0.00005556
      36     ang       2       3       4       0   122.61402754     0.00070977
      37     ang       3       4      24       0   115.22369240    -0.00600727
      38     ang       3       4       5       0   124.35501037    -0.00268982
      39     ang       3       4      25       0   163.41968090    -0.00469792
      40     ang      24       4       5       0   120.42124831     0.00868261
      41     ang      24       4      25       0    81.26357707     0.01042588
      42     ang       5       4      25       0    39.19435752    -0.00187717
      43     ang       4       5      25       0   114.75503989     0.00641763
      44     ang      10       7      15       0   121.77188217     0.02094624
      45     ang      10       8      21       0   125.50289682     0.02880806
      46     ang       8      10       7       0   117.26576555     0.02780320
      47     ang       8      10       9       0   120.06001906     0.01039692
      48     ang       7      10       9       0   119.99232623     0.01033358
      49     ang      17      11      12       0   110.76271648    -0.00127214
      50     ang      17      11      16       0   108.40355049    -0.00005595
      51     ang      17      11      18       0   108.29191624     0.00056785
      52     ang      12      11      16       0   110.22480969     0.00233828
      53     ang      12      11      18       0   110.72831604    -0.00152002
      54     ang      16      11      18       0   108.34951969    -0.00004733
      55     ang       2      12      11       0   109.05549742    -0.03413095
      56     ang       2      12      14       0   108.69962056     0.02946934
      57     ang       2      12      13       0   107.45147512     0.01515624
      58     ang      11      12      14       0   110.42411990     0.01215841
      59     ang      11      12      13       0   110.23025983     0.01058533
      60     ang      14      12      13       0   110.90020011    -0.03282115
      61     ang      12      13      19       0   111.23777546    -0.01125218
      62     ang      12      13      21       0   108.93628198     0.02134842
      63     ang      12      13      20       0   110.53091922     0.00089719
      64     ang      19      13      21       0   109.46834449    -0.02877964
      65     ang      19      13      20       0   108.42480665    -0.00186204
      66     ang      21      13      20       0   108.18592310     0.01940412
      67     ang      12      14      22       0   110.83829449    -0.00872813
      68     ang      12      14      15       0   109.38423438     0.01811374
      69     ang      12      14      23       0   110.87218455     0.00218090
      70     ang      22      14      15       0   109.39473182    -0.03000879
      71     ang      22      14      23       0   108.21331293    -0.00244589
      72     ang      15      14      23       0   108.07944045     0.02062455
      73     ang      14      15       7       0   149.52470632     0.14574110
      74     ang      13      21       8       0   150.62898878     0.14881796
      75     ang       5      25      27       0    92.24517468     0.00377962
      76     ang       5      25      29       0    93.23972058     0.00773534
      77     ang       5      25      26       0    92.51533970     0.00140996
      78     ang       5      25      28       0    93.87273403     0.04396880
      79     ang       4      25      27       0   107.74846688     0.00319767
      80     ang       4      25      29       0    77.17703492     0.00601882
      81     ang       4      25      26       0   112.53581412    -0.00414393
      82     ang       4      25      28       0    73.50394101     0.05232709
      83     ang      27      25      26       0    90.38910041     0.00093810
      84     ang      27      25      28       0    89.62451317    -0.01740473
      85     ang      29      25      26       0    89.91668142     0.00334465
      86     ang      29      25      28       0    89.45972316     0.01312198
      87     dih       6       2      12      11    96.89945664     0.00693851
      88     dih       6       2      12      14   217.34276178     0.01885829
      89     dih       6       2      12      13   -22.57785054     0.00516604
      90     dih       3       2      12      11   -71.37578020    -0.00555873
      91     dih       3       2      12      14    49.06752494     0.00636105
      92     dih       3       2      12      13   169.14691262    -0.00733120
      93     dih       6       2       3       1   185.36313190    -0.00454104
      94     dih       6       2       3       4     5.78035166    -0.00420450
      95     dih      12       2       3       1    -6.68316785     0.00779847
      96     dih      12       2       3       4   173.73405190     0.00813501
      97     dih       1       3       4      24   180.36404867    -0.00379621
      98     dih       1       3       4       5     0.44450212     0.00292284
      99     dih       1       3       4      25     6.75720557     0.00508975
     100     dih       2       3       4      24    -0.03475782    -0.00412230
     101     dih       2       3       4       5   180.04569564     0.00259675
     102     dih       2       3       4      25   186.35839909     0.00476366
     103     dih       3       4       5      25   177.15408427    -0.00193418
     104     dih      24       4       5      25    -2.76151343     0.00510406
     105     dih       4       5      25      27   127.91287689     0.00628593
     106     dih       4       5      25      29   -51.53972835     0.01056868
     107     dih       4       5      25      26   218.40133390     0.00722403
     108     dih       4       5      25      28    38.13744498     0.02369066
     109     dih      21       8      10       7   -60.76378229     0.15928090
     110     dih      21       8      10       9   137.78803474     0.01031266
     111     dih      15       7      10       8    59.96779068    -0.16653462
     112     dih      15       7      10       9   221.42909863    -0.01736460
     113     dih      17      11      12       2    60.72411156     0.00590585
     114     dih      17      11      12      14   -58.65395746    -0.01629511
     115     dih      17      11      12      13   178.46268531     0.00976763
     116     dih      16      11      12       2   180.69075289     0.00651972
     117     dih      16      11      12      14    61.31268387    -0.01568124
     118     dih      16      11      12      13   -61.57067337     0.01038150
     119     dih      18      11      12       2   -59.43214802     0.00698375
     120     dih      18      11      12      14   181.18978296    -0.01521722
     121     dih      18      11      12      13    58.30642572     0.01084552
     122     dih       2      12      14      22   177.43583800     0.05357534
     123     dih       2      12      14      15    56.73262349     0.08490884
     124     dih       2      12      14      23   -62.36180664     0.04630819
     125     dih      11      12      14      22   -62.97088388     0.03707345
     126     dih      11      12      14      15   176.32590161     0.06840695
     127     dih      11      12      14      23    57.23147149     0.02980630
     128     dih      13      12      14      22    59.52076448     0.03637488
     129     dih      13      12      14      15   -61.18245003     0.06770839
     130     dih      13      12      14      23   179.72311985     0.02910773
     131     dih       2      12      13      19   181.64913298    -0.06063422
     132     dih       2      12      13      21   -57.59619774    -0.08996617
     133     dih       2      12      13      20    61.14298858    -0.05163614
     134     dih      11      12      13      19    62.92516395    -0.03450313
     135     dih      11      12      13      21   183.67983322    -0.06383507
     136     dih      11      12      13      20   -57.58098045    -0.02550505
     137     dih      14      12      13      19   -59.67900469    -0.03472378
     138     dih      14      12      13      21    61.07566458    -0.06405572
     139     dih      14      12      13      20   179.81485091    -0.02572569
     140     dih      12      13      21       8    30.88821469    -0.02558618
     141     dih      19      13      21       8   152.72274855    -0.04459611
     142     dih      20      13      21       8   -89.30920093    -0.05200821
     143     dih      12      14      15       7   -24.33769270     0.03554037
     144     dih      22      14      15       7   214.08396869     0.05422056
     145     dih      23      14      15       7    96.47093171     0.06233269
     146     dih       3       4      25       5    -8.25854350    -0.00353629
     147     dih       3       4      25      27   -64.12555340     0.00217435
     148     dih       3       4      25      29   118.44062668     0.01060012
     149     dih       3       4      25      26    33.95313325     0.00318713
     150     dih       3       4      25      28   211.72662771     0.00634192
     151     dih      24       4      25       5   177.59094468     0.00475546
     152     dih      24       4      25      27   121.72393478     0.01046609
     153     dih      24       4      25      29   -55.70988514     0.01889187
     154     dih      24       4      25      26   219.80262143     0.01147888
     155     dih      24       4      25      28    37.57611589     0.01463367
     156     dih       5       4      25      27   -55.86700990     0.00571063
     157     dih       5       4      25      29   126.69917018     0.01413641
     158     dih       5       4      25      26    42.21167675     0.00672342
     159     dih       5       4      25      28   219.98517121     0.00987821
     160     dih      10       7      15      14    29.42886691    -0.00688138
     161     dih      10       8      21      13   -36.10577636    -0.00306527
     162     bnd       2      10       0       0     2.53576340     0.90314744
 
----------------------------------------------------------------------
Geometry Convergence after Step   3       (Hartree/Angstrom,Angstrom)
----------------------------------------------------------------------
current energy                               -5.07641048 Hartree
energy change                      -0.02837943     0.00029000    F
constrained gradient max            0.27653780     0.00100000    F
constrained gradient rms            0.05262384     0.00066667    F
gradient max                        0.27653780
gradient rms                        0.05262384
cart. step max                      0.06995138     0.01000000    F
cart. step rms                      0.02568872     0.00666667    F
 
 
--------
Geometry
--------
Formula: C8H15Cl4OSn
Atoms
  Index Symbol   x (angstrom)   y (angstrom)   z (angstrom)
      1      H     0.20550584    -1.96251247    -0.20202845
      2      C    -0.95170496    -0.22463117     0.28987929
      3      C     0.19657113    -0.88611828    -0.04211276
      4      C     1.45510748    -0.19960930    -0.18966351
      5      O     2.52019861    -0.77103146    -0.49199789
      6      H    -0.93167616     0.86046887     0.35263480
      7      H    -1.07371159    -1.14605319     2.96597694
      8      H    -1.90311687     0.49912034     2.80421397
      9      H    -0.02455736     0.41669621     2.94830607
     10      C    -0.97832972    -0.07579678     2.80500960
     11      C    -2.77855793    -1.15288853    -1.14343429
     12      C    -2.33709813    -0.88443381     0.30692308
     13      C    -3.31007648     0.09558009     0.98210262
     14      C    -2.25524025    -2.20363215     1.09276473
     15      H    -1.86190732    -2.00246970     2.09347621
     16      H    -3.77136153    -1.60931248    -1.15323626
     17      H    -2.08406876    -1.82995618    -1.64505156
     18      H    -2.82333274    -0.22391845    -1.71655252
     19      H    -4.31342401    -0.32873095     1.06090978
     20      H    -3.37403360     1.02710347     0.41446317
     21      H    -2.93111283     0.33323300     1.98163725
     22      H    -3.23933081    -2.67097949     1.17277282
     23      H    -1.58305498    -2.91139546     0.60369647
     24      H     1.43306833     0.86911200    -0.02097968
     25     Sn     3.93668473     0.36171787    -0.68688325
     26     Cl     4.83069131    -0.82183612    -2.54276091
     27     Cl     5.31934087    -0.88314131     0.79270203
     28     Cl     3.32662487     1.78709888     1.12530987
     29     Cl     2.79797659     1.83021743    -2.17799692
 
Total System Charge             0.00000
 
 *** GOStep4 ***

 Energy gradients wrt nuclear displacements
 ==========================================

     Atom      Cartesian (a.u./angstrom)
                 X         Y         Z
 ----------------------------------------
     1 H    -0.000884 -0.001691 -0.001033
     2 C     0.018702  0.007205 -0.005628
     3 C    -0.046231  0.003212  0.007371
     4 C     0.135758  0.011585 -0.019008
     5 O     0.154113  0.167101 -0.018391
     6 H    -0.002600 -0.003376  0.003037
     7 H    -0.018036 -0.022736 -0.015535
     8 H    -0.038958 -0.001433 -0.025111
     9 H    -0.001140 -0.000023 -0.001221
    10 C    -0.018529 -0.009536 -0.017969
    11 C    -0.002878 -0.001225  0.006284
    12 C    -0.014250 -0.010701 -0.010033
    13 C     0.009787  0.001883  0.005636
    14 C     0.004906  0.007705  0.004132
    15 H     0.020327  0.024541  0.019897
    16 H     0.001870  0.000208 -0.000466
    17 H     0.000602  0.001031  0.002335
    18 H     0.000893 -0.000805  0.002941
    19 H     0.001555  0.000015 -0.000241
    20 H     0.002575 -0.002459  0.001098
    21 H     0.042537  0.002747  0.029192
    22 H     0.001350  0.000797 -0.000166
    23 H     0.002492  0.004077 -0.000635
    24 H    -0.001677 -0.012311  0.000311
    25 Sn   -0.220328 -0.121616  0.037433
    26 Cl   -0.010516 -0.001609  0.009077
    27 Cl   -0.013051 -0.000536 -0.006587
    28 Cl   -0.009255 -0.023476 -0.019296
    29 Cl    0.000865 -0.018573  0.012578
 ----------------------------------------
 Mulliken charges used for AMS results%charges...
Hessian eigenvector     1(    -0.034) has overlap with TSRC:    0.64175E+00
Hessian eigenvector     1 has the largest overlap with TSRC:  0.64175
           Primitive Internal Coordinates (atoms in internal order)
-------------------------------------------------------------------------------
    index    type      i       j       k       l   value(A,deg)     Max Ovl Vect
-------------------------------------------------------------------------------
       1     bnd       1       3       0       0     1.08824506     0.00017244
       2     bnd       2       6       0       0     1.08709774    -0.00088036
       3     bnd       2      12       0       0     1.53458277     0.00665065
       4     bnd       2       3       0       0     1.36613393    -0.00671390
       5     bnd       3       4       0       0     1.44117297     0.01029854
       6     bnd       4      24       0       0     1.08217613    -0.00744633
       7     bnd       4       5       0       0     1.24593278    -0.02232818
       8     bnd       5      25       0       0     1.82415302    -0.01167964
       9     bnd       8      10       0       0     1.08892681     0.00399394
      10     bnd       7      10       0       0     1.08648837     0.00217895
      11     bnd       9      10       0       0     1.08294272     0.00112134
      12     bnd      11      17       0       0     1.09195040    -0.00060650
      13     bnd      11      12       0       0     1.53963995    -0.00247955
      14     bnd      12      14       0       0     1.53770350     0.00137204
      15     bnd      12      13       0       0     1.53719924     0.00005153
      16     bnd      13      19       0       0     1.09222558     0.00049419
      17     bnd      13      21       0       0     1.09506247     0.01328435
      18     bnd      14      22       0       0     1.09235941     0.00038675
      19     bnd      14      15       0       0     1.09389241     0.01075811
      20     bnd      11      16       0       0     1.09273871    -0.00032861
      21     bnd      11      18       0       0     1.09245352    -0.00037945
      22     bnd      13      20       0       0     1.09272176    -0.00018483
      23     bnd      14      23       0       0     1.09176449    -0.00125915
      24     bnd       4      25       0       0     2.59240068    -0.02214033
      25     bnd      25      27       0       0     2.37709591    -0.00278630
      26     bnd      25      29       0       0     2.38255476    -0.00309289
      27     bnd      25      26       0       0     2.37577982    -0.00104748
      28     bnd      25      28       0       0     2.38493772     0.00060874
      29     bnd       7      15       0       0     1.45463372    -0.00832557
      30     bnd       8      21       0       0     1.32699917    -0.01397382
      31     ang       6       2      12       0   116.43341000    -0.00507833
      32     ang       6       2       3       0   118.80673083    -0.00059313
      33     ang      12       2       3       0   123.59560527     0.00662784
      34     ang       1       3       2       0   121.43577179     0.00029309
      35     ang       1       3       4       0   116.67647966     0.00071458
      36     ang       2       3       4       0   121.88656359    -0.00101420
      37     ang       3       4      24       0   115.89276771    -0.00456693
      38     ang       3       4       5       0   123.56578440    -0.00397070
      39     ang       3       4      25       0   163.48014911    -0.00501770
      40     ang      24       4       5       0   120.54144524     0.00852279
      41     ang      24       4      25       0    80.53504828     0.00930040
      42     ang       5       4      25       0    40.04448837    -0.00091555
      43     ang       4       5      25       0   113.88717346     0.00440570
      44     ang      10       7      15       0   122.59244425     0.02642090
      45     ang      10       8      21       0   126.32452795     0.03428574
      46     ang       8      10       7       0   116.46371830     0.02690160
      47     ang       8      10       9       0   120.52794597     0.01171333
      48     ang       7      10       9       0   120.37734231     0.01131938
      49     ang      17      11      12       0   111.00749513    -0.00044198
      50     ang      17      11      16       0   108.34469624    -0.00030813
      51     ang      17      11      18       0   108.19996496     0.00058818
      52     ang      12      11      16       0   109.98570135     0.00138939
      53     ang      12      11      18       0   110.95755562    -0.00083206
      54     ang      16      11      18       0   108.25452430    -0.00040017
      55     ang       2      12      11       0   108.86621091    -0.03697134
      56     ang       2      12      14       0   109.05508952     0.03224957
      57     ang       2      12      13       0   107.58907136     0.01819819
      58     ang      11      12      14       0   110.30953827     0.01206345
      59     ang      11      12      13       0   110.08606156     0.01067290
      60     ang      14      12      13       0   110.86504515    -0.03567702
      61     ang      12      13      19       0   111.43655156    -0.01023827
      62     ang      12      13      21       0   108.67656723     0.01977198
      63     ang      12      13      20       0   110.63195665     0.00129643
      64     ang      19      13      21       0   109.65502418    -0.02873798
      65     ang      19      13      20       0   108.35405642    -0.00191250
[...]
    25    Sn       0.000000   0.000000  -0.000002
    26    Cl       0.000000  -0.000000   0.000001
    27    Cl      -0.000000  -0.000000   0.000001
    28    Cl      -0.000000  -0.000000   0.000001
    29    Cl       0.000002  -0.000001   0.000003
 
 Mode:    79      Frequency (cm-1):     3077.0174     Intensity (km/mol):       15.5891
 Index  Atom      ---- Displacements (x/y/z) ----
     1     H      -0.000404   0.017388  -0.001328
     2     C       0.000282  -0.008238   0.001217
     3     C      -0.000272  -0.001521   0.000178
     4     C      -0.000020  -0.000143   0.000007
     5     O       0.000055  -0.000002  -0.000011
     6     H      -0.003174   0.096196  -0.013324
     7     H      -0.004148  -0.014014   0.007436
     8     H      -0.014827   0.016775  -0.000343
     9     H       0.019984   0.003535  -0.001835
    10     C      -0.000121  -0.000608  -0.000535
    11     C       0.031478   0.036469  -0.008640
    12     C       0.000442   0.001223  -0.000396
    13     C       0.035445   0.044325  -0.001390
    14     C      -0.051049  -0.000107  -0.014436
    15     H       0.045354  -0.011403   0.253288
    16     H      -0.352906  -0.137515  -0.047946
    17     H      -0.025638   0.036174   0.023128
    18     H       0.001753  -0.335638   0.129753
    19     H      -0.422996  -0.162372  -0.104096
    20     H      -0.007552  -0.379832   0.119105
    21     H       0.008000   0.010433   0.000906
    22     H       0.406733   0.162085   0.057929
    23     H       0.156370  -0.153140  -0.136735
    24     H      -0.000015   0.001231  -0.000078
    25    Sn      -0.000003   0.000001  -0.000001
    26    Cl       0.000002   0.000000   0.000000
    27    Cl       0.000002  -0.000003   0.000001
    28    Cl       0.000001  -0.000000   0.000001
    29    Cl       0.000002  -0.000001   0.000001
 
 Mode:    80      Frequency (cm-1):     3081.4926     Intensity (km/mol):       36.1944
 Index  Atom      ---- Displacements (x/y/z) ----
     1     H       0.001605  -0.025133   0.001611
     2     C       0.000292  -0.009457   0.001358
     3     C      -0.000546   0.002283  -0.000021
     4     C      -0.000297  -0.000040   0.000040
     5     O       0.000143  -0.000025  -0.000032
     6     H      -0.003281   0.105135  -0.015199
     7     H       0.000942   0.002425  -0.001349
     8     H       0.005789  -0.006946  -0.000497
     9     H      -0.005610  -0.001018   0.000770
    10     C      -0.000134   0.000483  -0.000013
    11     C       0.006242   0.038617  -0.000814
    12     C       0.001819   0.001498  -0.000061
    13     C       0.020111   0.031805  -0.010926
    14     C       0.070615   0.000446   0.016523
    15     H      -0.052066   0.012983  -0.302565
    16     H      -0.186273  -0.065805  -0.026492
    17     H       0.112674  -0.085621  -0.086282
    18     H      -0.005816  -0.311522   0.122642
    19     H      -0.255806  -0.094514  -0.064783
    20     H      -0.008544  -0.290189   0.087334
    21     H       0.020743   0.002466   0.107172
    22     H      -0.579150  -0.234971  -0.082051
    23     H      -0.215720   0.210293   0.187752
    24     H       0.000561   0.001434  -0.000148
    25    Sn      -0.000007  -0.000002   0.000003
    26    Cl       0.000004   0.000002  -0.000002
    27    Cl       0.000004  -0.000003  -0.000000
    28    Cl       0.000004   0.000003   0.000001
    29    Cl       0.000002   0.000001  -0.000006
 
 Mode:    81      Frequency (cm-1):     3087.6004     Intensity (km/mol):        4.1481
 Index  Atom      ---- Displacements (x/y/z) ----
     1     H      -0.002431   0.032402  -0.001579
     2     C      -0.000264   0.003456  -0.000383
     3     C       0.000201  -0.002888   0.000170
     4     C       0.000088   0.000031  -0.000000
     5     O       0.000007  -0.000003  -0.000006
     6     H       0.000438  -0.039937   0.005383
     7     H       0.001424   0.004932  -0.002560
     8     H       0.010846  -0.012622  -0.000373
     9     H      -0.011738  -0.001829   0.001191
    10     C      -0.000133   0.000844   0.000098
    11     C       0.046463  -0.033336  -0.014381
    12     C       0.000544   0.000113   0.000559
    13     C      -0.004728   0.008572  -0.020631
    14     C      -0.006572   0.022870   0.063546
    15     H      -0.127496   0.028195  -0.537209
    16     H      -0.218949  -0.100726  -0.032280
    17     H      -0.353031   0.302345   0.279378
    18     H       0.015370   0.194356  -0.079830
    19     H       0.032988   0.016179   0.004394
    20     H      -0.006532  -0.109449   0.029316
    21     H       0.029911  -0.008908   0.211303
    22     H      -0.098187  -0.032061   0.002469
    23     H       0.303800  -0.267792  -0.224578
    24     H      -0.000291  -0.000989   0.000054
    25    Sn      -0.000002  -0.000001   0.000000
    26    Cl       0.000001   0.000000  -0.000001
    27    Cl       0.000001  -0.000000  -0.000000
    28    Cl       0.000001   0.000001  -0.000001
    29    Cl       0.000001   0.000000  -0.000000
 
 Mode:    82      Frequency (cm-1):     3090.6697     Intensity (km/mol):       25.5025
 Index  Atom      ---- Displacements (x/y/z) ----
     1     H      -0.002304   0.034080  -0.001524
     2     C       0.000359  -0.015093   0.001916
     3     C      -0.000216  -0.003058   0.000099
     4     C       0.000059  -0.000406   0.000006
     5     O       0.000028   0.000016  -0.000011
     6     H      -0.002593   0.178045  -0.024848
     7     H      -0.000751  -0.001607   0.000583
     8     H       0.005684  -0.006693  -0.000489
     9     H      -0.006416  -0.000972   0.000486
    10     C       0.000136   0.000900  -0.000092
    11     C      -0.053606   0.036345   0.016939
    12     C      -0.001349   0.000665   0.001070
    13     C      -0.005357  -0.002422  -0.006196
    14     C      -0.026809   0.020390   0.050436
    15     H      -0.093271   0.020314  -0.374209
    16     H       0.253380   0.117409   0.037237
    17     H       0.406961  -0.347846  -0.324311
    18     H      -0.016780  -0.203191   0.083479
    19     H       0.064340   0.025231   0.013397
    20     H      -0.001682   0.004611  -0.003723
    21     H       0.008095  -0.004234   0.059934
    22     H       0.081562   0.040615   0.025933
    23     H       0.336477  -0.304607  -0.255726
    24     H       0.000160   0.004232  -0.000185
    25    Sn       0.000003   0.000001   0.000001
    26    Cl      -0.000003  -0.000001   0.000000
    27    Cl      -0.000002   0.000000  -0.000001
    28    Cl      -0.000002  -0.000001  -0.000002
    29    Cl      -0.000003  -0.000001  -0.000002
 
 Mode:    83      Frequency (cm-1):     3093.8370     Intensity (km/mol):       14.0245
 Index  Atom      ---- Displacements (x/y/z) ----
     1     H       0.003721  -0.061526   0.002786
     2     C       0.002595  -0.074825   0.010399
     3     C      -0.002483   0.005721   0.000373
     4     C      -0.000947  -0.001351   0.000247
     5     O       0.000390  -0.000033  -0.000099
     6     H      -0.010803   0.879763  -0.125660
     7     H      -0.013285  -0.040879   0.020915
     8     H      -0.020854   0.024781  -0.000617
     9     H       0.047434   0.010107  -0.003981
    10     C      -0.001289   0.000580  -0.001910
    11     C       0.004338  -0.014855  -0.000313
    12     C       0.000720  -0.001010  -0.000245
    13     C      -0.016025  -0.000697  -0.030042
    14     C       0.000057  -0.003688  -0.015120
    15     H       0.032240  -0.007742   0.137801
    16     H       0.014759   0.002965   0.001169
    17     H      -0.067867   0.055146   0.053817
    18     H       0.002200   0.121247  -0.048950
    19     H       0.156432   0.066064   0.031945
    20     H      -0.007751  -0.038258   0.006578
    21     H       0.042286  -0.014353   0.321336
    22     H       0.025383   0.008106  -0.000203
    23     H      -0.056932   0.050205   0.041827
    24     H       0.002417   0.018206  -0.001382
    25    Sn      -0.000001  -0.000004   0.000000
    26    Cl      -0.000001   0.000001   0.000000
    27    Cl       0.000002   0.000000   0.000000
    28    Cl      -0.000005   0.000006   0.000006
    29    Cl      -0.000003   0.000002  -0.000004
 
 Mode:    84      Frequency (cm-1):     3095.5085     Intensity (km/mol):       22.2015
 Index  Atom      ---- Displacements (x/y/z) ----
     1     H      -0.000801   0.017103  -0.000870
     2     C      -0.000871   0.031816  -0.004515
     3     C       0.001054  -0.001695  -0.000125
     4     C       0.000472   0.000551  -0.000133
     5     O      -0.000239   0.000032   0.000060
     6     H       0.004042  -0.374822   0.053321
     7     H      -0.004351  -0.013420   0.007042
     8     H      -0.014344   0.016059  -0.000042
     9     H       0.030096   0.006317  -0.002860
    10     C      -0.001365  -0.000927  -0.000094
    11     C      -0.008877   0.008984   0.002221
    12     C      -0.001435   0.000688  -0.001554
    13     C      -0.030065   0.015795  -0.074326
    14     C      -0.005219  -0.005944  -0.017074
    15     H       0.037541  -0.010058   0.164578
    16     H       0.042347   0.020346   0.008272
    17     H       0.071423  -0.060298  -0.056349
    18     H      -0.003515  -0.067749   0.028718
    19     H       0.281262   0.119277   0.051111
    20     H      -0.018609  -0.277507   0.068451
    21     H       0.104479  -0.031460   0.771192
    22     H       0.079184   0.030696   0.006700
    23     H      -0.052996   0.045477   0.037629
    24     H      -0.000991  -0.007252   0.000575
    25    Sn       0.000004   0.000003  -0.000003
    26    Cl      -0.000001  -0.000001   0.000001
    27    Cl      -0.000002   0.000000   0.000001
    28    Cl      -0.000000  -0.000004  -0.000001
    29    Cl       0.000002  -0.000002   0.000007
 
 Mode:    85      Frequency (cm-1):     3153.6734     Intensity (km/mol):        1.2122
 Index  Atom      ---- Displacements (x/y/z) ----
     1     H       0.071480  -0.988743   0.040756
     2     C       0.002871   0.003532  -0.001209
     3     C      -0.007437   0.084994  -0.003228
     4     C      -0.002513   0.001036   0.000556
     5     O       0.000336  -0.000161  -0.000082
     6     H       0.003348  -0.059764   0.007935
     7     H       0.000646   0.002458  -0.000838
     8     H      -0.001343   0.001483   0.000250
     9     H      -0.000714  -0.000060   0.000165
    10     C       0.000112  -0.000395  -0.000134
    11     C      -0.000419   0.000775   0.000200
    12     C       0.000016   0.000484   0.000170
    13     C       0.000228   0.000388  -0.000096
    14     C      -0.003454   0.002449   0.003310
    15     H      -0.003955   0.001060  -0.011931
    16     H      -0.000703  -0.000131  -0.000242
    17     H       0.005294  -0.004558  -0.004716
    18     H       0.000067  -0.004894   0.001941
    19     H      -0.004273  -0.001385  -0.000730
    20     H      -0.000052  -0.004280   0.001226
    21     H       0.000211  -0.000025  -0.000029
    22     H       0.009361   0.003457   0.002687
    23     H       0.041425  -0.035327  -0.030806
    24     H      -0.000327  -0.017008   0.000853
    25    Sn       0.000002   0.000002   0.000000
    26    Cl      -0.000000  -0.000001  -0.000000
    27    Cl       0.000004  -0.000008   0.000002
    28    Cl       0.000003  -0.000003  -0.000001
    29    Cl      -0.000002  -0.000001  -0.000005
 
 Mode:    86      Frequency (cm-1):     3242.9073     Intensity (km/mol):        1.0375
 Index  Atom      ---- Displacements (x/y/z) ----
     1     H       0.000292  -0.002589   0.000088
     2     C      -0.000022   0.001160  -0.000190
     3     C       0.000129   0.000108   0.000079
     4     C       0.000062  -0.000007  -0.000005
     5     O      -0.000013  -0.000008   0.000003
     6     H       0.000177  -0.013708   0.002492
     7     H      -0.131564  -0.373029   0.210412
     8     H       0.509903  -0.611799  -0.017082
     9     H       0.379643   0.093849  -0.038608
    10     C      -0.063756   0.074992  -0.013149
    11     C      -0.000032   0.000055  -0.000023
    12     C      -0.000029   0.000033   0.000096
    13     C       0.000142   0.000095   0.000827
    14     C      -0.000155  -0.000028  -0.000526
    15     H       0.001445  -0.000134   0.006527
    16     H       0.000648   0.000241   0.000290
    17     H       0.000294  -0.000274  -0.000321
    18     H      -0.000025  -0.000491   0.000202
    19     H      -0.001887  -0.001154  -0.000993
    20     H       0.000086  -0.002223   0.000982
    21     H      -0.001395   0.000455  -0.011028
    22     H       0.001125   0.000402   0.000168
    23     H      -0.000339   0.000175   0.000129
    24     H      -0.000152   0.000622   0.000162
    25    Sn       0.000000   0.000002   0.000001
    26    Cl       0.000000  -0.000001  -0.000000
    27    Cl      -0.000000  -0.000002   0.000000
    28    Cl      -0.000002  -0.000004  -0.000001
    29    Cl      -0.000000  -0.000000   0.000000
 
 Mode:    87      Frequency (cm-1):     3245.4802     Intensity (km/mol):        1.2603
 Index  Atom      ---- Displacements (x/y/z) ----
     1     H      -0.000212   0.001263  -0.000088
     2     C       0.000139  -0.000179  -0.000023
     3     C       0.000158  -0.000057   0.000057
     4     C       0.000028  -0.000264   0.000069
     5     O      -0.000014   0.000019  -0.000002
     6     H      -0.000334   0.003708  -0.001596
     7     H       0.168646   0.577267  -0.317284
     8     H       0.003100  -0.029491   0.005122
     9     H       0.710193   0.136197  -0.061067
    10     C      -0.074333  -0.057686   0.031317
    11     C      -0.000011   0.000010  -0.000006
    12     C      -0.000018   0.000017   0.000207
    13     C       0.000112  -0.000141   0.000880
    14     C       0.000143   0.000048   0.000910
    15     H      -0.002629   0.000415  -0.010885
    16     H       0.000722   0.000274   0.000374
    17     H       0.000325  -0.000317  -0.000417
    18     H      -0.000051   0.000225  -0.000133
    19     H      -0.000703  -0.000308  -0.000518
    20     H      -0.000002   0.001944  -0.000732
    21     H      -0.000717   0.000422  -0.009617
    22     H      -0.000795  -0.000146  -0.000080
    23     H       0.001360  -0.001251  -0.001003
    24     H      -0.000057   0.003115   0.000057
    25    Sn       0.000001   0.000000   0.000001
    26    Cl      -0.000000  -0.000000  -0.000000
    27    Cl      -0.000001   0.000001  -0.000001
    28    Cl      -0.000005  -0.000002   0.000001
    29    Cl      -0.000001   0.000000  -0.000000

PES point character: Geometry corresponds to a transition state.
                     (Hint: Very small negative frequencies do not count towards being a
                     transition state, as they usually indicate noise on a very flat PES. See
                     the PESPointCharacter%NegativeFrequenciesTolerance keyword documentation.)




 ============================
 Statistical Thermal Analysis  ***  ideal gas assumed  ***
 ============================
  
 Pressure:                  1.000000 atm.
 Temperature:             298.150000 K



 Moments of Inertia [amu*bohr^2] and principal axis
 ==================================================

        2891.2480      14637.0894      14986.6190
 ------------------------------------------------
          -0.9577          0.1649          0.2357
          -0.1614          0.3703         -0.9148
           0.2382          0.9141          0.3281


 The rotational contribution to the molecular entropy includes
 a term, dependent on the symmetry number sigma. The results 
 reported below were computed using sigma = 1, determined from
 the point group symmetry of the input geometry (NOSYM). 
 If this is not the correct symmetry, try symmetrizing the molecule before
 running the calculation (note: linear molecules should be aligned along one
 of the Cartesian axes).
 Contributions from frequencies below 20 1/cm are not included in vibrational sums.
 Their contributions, if any, are reported separately.


     Temp                                                        Transl      Rotat     Vibrat     Total
     ----                                                        ------      -----     ------     -----

     298.15   Entropy (cal/mol-K):                               43.751     34.805     79.609    158.165
              Nuclear Internal Energy (kcal/mol):                 0.889      0.889    142.913    144.691
              Constant Volume Heat Capacity (cal/mol-K):          2.981      2.981     64.598     70.559
          (c) Constant Volume Heat Capacity (cal/mol-K):          2.981      2.981     56.786     62.747

       Summary of energy terms
                                                   hartree              eV         kcal/mol           kJ/mol
                                      --------------------     -----------       ----------      -----------
      Energy from Engine:               -5.203069538131538       -141.5827         -3264.98        -13660.66
      Nuclear Internal Energy:           0.230579340356032          6.2744           144.69           605.39
  (c) Nuclear Internal Energy:           0.226624604074210          6.1668           142.21           595.00
      Internal Energy U:                -4.972490197775506       -135.3083         -3120.29        -13055.27
      pV/n = RT:                         0.000944186013486          0.0257             0.59             2.48
      Enthalpy H:                       -4.971546011762020       -135.2827         -3119.69        -13052.79
      -T*S:                             -0.075149330084157         -2.0449           -47.16          -197.30
  (c) -T*S:                             -0.070968216544068         -1.9311           -44.53          -186.33
      Gibbs free energy:                -5.046695341846177       -137.3276         -3166.85        -13250.10
 
 
 
  (c) The properties marked with this symbol have been corrected using 'low vibrational frequency free rotor
      interpolation corrections'. For those terms all positive frequencies are used (also ones below 20 1/cm),
      but the contribution to the partition function of small vibrational frequencies is modified as described
      in the following paper:
      S. Grimme, 'Supramolecular Binding Thermodynamics by Dispersion-Corrected Density Functional Theory'
      (Chem. Eur. J. 2012, 18, 9955-9964)
      Configuration: Dampener Frequency          :   100.000 1/cm
                     Dampener Alpha              :     4.000
                     Averaging Moment of Inertia : 1.000E-44 kg m2

--------------
Atomic charges
--------------
  Index   Atom    Charge
      1      H   -0.2067
      2      C    0.2661
      3      C    0.2297
      4      C    0.7266
      5      O   -0.5556
      6      H   -0.1756
      7      H   -0.1516
      8      H   -0.1768
      9      H   -0.1734
     10      C    0.5854
     11      C    0.7254
     12      C   -0.0430
     13      C    0.7672
     14      C    0.7394
     15      H   -0.2393
     16      H   -0.2249
     17      H   -0.2231
     18      H   -0.2371
     19      H   -0.2411
     20      H   -0.2501
     21      H   -0.2369
     22      H   -0.2351
     23      H   -0.2446
     24      H   -0.2734
     25     Sn    1.0699
     26     Cl   -0.3133
     27     Cl   -0.2855
     28     Cl   -0.3181
     29     Cl   -0.3047


Dipole moment vector    (Debye):   -10.38666286   -1.12054561    3.11227887
              magnitude (Debye):    10.90067280


Final PES point is a transition state. Transition state search successful!


AMS application finished. Exiting.
NORMAL TERMINATION
     Total cpu time:  265617.67
  Total system time:     975.84
 Total elapsed time:  536163.23
 WARNING: total elapsed time is much higher than the (CPU+system) time. 
 Make sure the machine is not oversubscribed and has enough memory, SCM_TMPDIR p
 oints to a fast file system, and the network is fast enough.
