

 Parallel Execution: Process Information
 ==============================================================================
 Rank   Node Name                              NodeID   MyNodeRank  NodeMaster
    0   node115                                   0          0          0
    1   node115                                   0          1         -1
    2   node115                                   0          2         -1
    3   node115                                   0          3         -1
 ==============================================================================


May use up to 122928MB of RAM as shared memory on node 0

 *******************************************************************************
 *                                                                             *
 *  --------------------------------                                           *
 *   Amsterdam Modeling Suite (AMS)              2021.102                      *
 *  --------------------------------                                           *
 *                                               r95042 2021-06-07             *
 *                                                                             *
 *                                                                             *
 *                              =================                              *
 *                              |               |                              *
 *                              |     A M S     |                              *
 *                              |               |                              *
 *                              =================                              *
 *                                                                             *
 *                                                                             *
 *   Online information and documentation:  https://www.scm.com/support/       *
 *   E-mail:  support@scm.com   info@scm.com                                   *
 *                                                                             *
 *   Scientific publications using AMS results must be properly referenced     *
 *   See the User Manuals (or the web site) for recommended citations          *
 *   The terms and conditions of the End User License Agreement apply to       *
 *   the use of AMS, https://www.scm.com/license-terms/                        *
 *                                                                             *
 **********************  x86_64_linux_intel / intelmpi  ************************
 
 Licensed to: VU/FEW (+ SARA) / ALGEMEEN / Amsterdam / THE NETHERLANDS
 SCM User ID: u7668
  
 AMS 2021.102  RunTime: Jan22-2022 23:24:51  ShM Nodes: 1  Procs: 4

 AMS jobname: 8.achiral_catalyst.H_H_I2.Rsub
 AMS jobid  : 193612291

 Start   directory: /scistor/tc/yhk800/MasterProject/calculations/achiral_catalyst_H_H_I2/8.achiral_catalyst.H_H_I2.Rsub/
 Results directory: /scistor/tc/yhk800/MasterProject/calculations/achiral_catalyst_H_H_I2/8.achiral_catalyst.H_H_I2.Rsub/
 Scratch directory: /scratch/3976/amstmp_8.achiral_catalyst.H_H_I2.Rsub_kid0.193612291/


 Communication costs MPI_COMM_WORLD:      0.157 usec per message,   0.0039 usec per 8-byte item
 Communication costs for intra-node:      0.841 usec per message,   0.0102 usec per 8-byte item

 RNG seed: -1133632123 1515433627 1031136666 746679720 944563695 1740647565 -1277631754 -262300643



                      ************************************************************************
                      *  ADF 2021.102  RunTime: Jan22-2022 23:24:52  ShM Nodes: 1  Procs: 4  *
                      ************************************************************************
  
       ***************************
       *  GEOMETRY OPTIMIZATION  *
       ***************************

Optimization Method                    Quasi Newton
Optimization Coordinates               Delocalized Coordinates
Optimize lattice                       F
 
 ------------------------------------------------------
 Convergence criteria (Hartree,Angstrom)
 ------------------------------------------------------
 Maximum gradient               0.001000000000
 Maximum rms gradient           0.000666666667
 Maximum step allowed           0.010000000000
 Maximum rms step allowed       0.006666666667
 Maximum energy change allowe   0.000080000000
 Maximum stress energy allowe   0.000500000000
 
Initial model Hessian                  Automatic Hessian
 
------------------------------------
Quasi-Newton Optimizer Parameters
------------------------------------
Hessian Update Method                  BFGS
Maximum number of steps                  250
First GDIIS cycle                          0
Maximum GDIIS vectors                      0
Trust radius (bohr)                        0.200000
Trust radius varies                        T
Constraints converged at all steps         T
Use projector                              T
 
 Rigid motions settings for: old optimizer
 Atomic rotations (x,y,z):     T T T
 Atomic translations (x,y,z):  T T T
 Tolerance:                   1.000000000000000E-006
 
--------
Geometry
--------
Formula: C3H4O
Atoms
  Index Symbol   x (angstrom)   y (angstrom)   z (angstrom)
      1      H     0.09039378    -1.80988465    -0.51555853
      2      C    -0.90781845    -0.00771283    -0.04943451
      3      C     0.18266548    -0.75219647    -0.26512258
      4      C     1.55928918    -0.22013974    -0.18291419
      5      O     1.86635738     0.93365884     0.07180470
      6      H    -0.82431619     1.04491294     0.20242594
      7      H    -1.88982657    -0.42714089    -0.11755322
      8      H     2.32514145    -0.94333367    -0.37095895
 
Total System Charge             0.00000
 
 
----------------
ADF Engine Input
----------------
 
 NumericalQuality VeryGood
 SCF
 Converge 1.0e-6
 Iterations 99
 End
 SYMMETRY NOSYM
 XC
 GGA OLYP
 End
 basis
 core None
 type TZ2P
 End
 

 Title: *** (NO TITLE) ***

 Using automatic Hessian for delocalized coordinates.
 *** GOStep1 ***

 Energy gradients wrt nuclear displacements
 ==========================================

     Atom      Cartesian (a.u./angstrom)
                 X         Y         Z
 ----------------------------------------
     1 H    -0.000479 -0.000610 -0.000154
     2 C    -0.013424 -0.007948 -0.001545
     3 C     0.004291  0.002219  0.000431
     4 C     0.024755 -0.037676 -0.009129
     5 O     0.004182  0.001411  0.000030
     6 H    -0.001329 -0.002006 -0.000331
     7 H     0.020437  0.008150  0.001242
     8 H    -0.038433  0.036459  0.009454
 ----------------------------------------
 Mulliken charges used for AMS results%charges...
 
----------------------------------------------------------------------
Geometry Convergence after Step   1       (Hartree/Angstrom,Angstrom)
----------------------------------------------------------------------
current energy                               -1.68211643 Hartree
energy change                      -1.68211643     0.00008000    F
constrained gradient max            0.03843768     0.00100000    F
constrained gradient rms            0.01553533     0.00066667    F
gradient max                        0.03843768
gradient rms                        0.01553533
cart. step max                      0.02870889     0.01000000    F
cart. step rms                      0.00800847     0.00666667    F
 
 
--------
Geometry
--------
Formula: C3H4O
Atoms
  Index Symbol   x (angstrom)   y (angstrom)   z (angstrom)
      1      H     0.09006653    -1.80792048    -0.51499547
      2      C    -0.91216752    -0.00552442    -0.04831252
      3      C     0.18127357    -0.75032916    -0.26538919
      4      C     1.56297160    -0.21813349    -0.18431672
      5      O     1.85698174     0.93645289     0.07684826
      6      H    -0.82478603     1.04901159     0.19929398
      7      H    -1.90630417    -0.42779707    -0.11430011
      8      H     2.35385034    -0.95759633    -0.37613956
 
Total System Charge             0.00000
 
 *** GOStep2 ***

 Energy gradients wrt nuclear displacements
 ==========================================

     Atom      Cartesian (a.u./angstrom)
                 X         Y         Z
 ----------------------------------------
     1 H    -0.000057 -0.000077 -0.000134
     2 C    -0.006096 -0.001435  0.000269
     3 C     0.004154  0.002104  0.000569
     4 C     0.008175 -0.017648 -0.005371
     5 O     0.000735  0.003378  0.001135
     6 H    -0.000345 -0.000572 -0.000324
     7 H     0.005167  0.002262  0.000306
     8 H    -0.011732  0.011987  0.003550
 ----------------------------------------
 Mulliken charges used for AMS results%charges...

 dE(predicted):    -0.99414E-03, dE(actual):    -0.12713E-02, Trust radius:    0.200000, all in a.u.
 
----------------------------------------------------------------------
Geometry Convergence after Step   2       (Hartree/Angstrom,Angstrom)
----------------------------------------------------------------------
current energy                               -1.68338775 Hartree
energy change                      -0.00127132     0.00008000    F
constrained gradient max            0.01765667     0.00100000    F
constrained gradient rms            0.00580259     0.00066667    F
gradient max                        0.01765667
gradient rms                        0.00580259
cart. step max                      0.01307428     0.01000000    F
cart. step rms                      0.00503652     0.00666667    T
 
 
--------
Geometry
--------
Formula: C3H4O
Atoms
  Index Symbol   x (angstrom)   y (angstrom)   z (angstrom)
      1      H     0.08974074    -1.80902201    -0.51059148
      2      C    -0.91288525    -0.00442197    -0.05194878
      3      C     0.17970441    -0.75132477    -0.26143216
      4      C     1.56293868    -0.21662003    -0.17124244
      5      O     1.85509686     0.93971707     0.07238621
      6      H    -0.82307698     1.04830565     0.20477641
      7      H    -1.91210074    -0.42675282    -0.12145526
      8      H     2.36246834    -0.96171759    -0.38780384
 
Total System Charge             0.00000
 
 *** GOStep3 ***

 Energy gradients wrt nuclear displacements
 ==========================================

     Atom      Cartesian (a.u./angstrom)
                 X         Y         Z
 ----------------------------------------
     1 H    -0.000302 -0.000194  0.000123
     2 C     0.000049  0.000225 -0.001452
     3 C     0.001256  0.002006 -0.002013
     4 C     0.000602 -0.004438  0.007515
     5 O    -0.000237  0.000573 -0.002922
     6 H     0.000141 -0.000106  0.000513
     7 H    -0.000457 -0.000439  0.000572
     8 H    -0.001052  0.002373 -0.002336
 ----------------------------------------
 Mulliken charges used for AMS results%charges...

 dE(predicted):    -0.16236E-03, dE(actual):    -0.10764E-03, Trust radius:    0.200000, all in a.u.
 
----------------------------------------------------------------------
Geometry Convergence after Step   3       (Hartree/Angstrom,Angstrom)
----------------------------------------------------------------------
current energy                               -1.68349539 Hartree
energy change                      -0.00010764     0.00008000    F
constrained gradient max            0.00751086     0.00100000    F
constrained gradient rms            0.00214705     0.00066667    F
gradient max                        0.00751086
gradient rms                        0.00214705
cart. step max                      0.03168707     0.01000000    F
cart. step rms                      0.00934102     0.00666667    F
 
 
--------
Geometry
--------
Formula: C3H4O
Atoms
  Index Symbol   x (angstrom)   y (angstrom)   z (angstrom)
      1      H     0.08972703    -1.80908589    -0.51248106
      2      C    -0.91313739    -0.00565251    -0.04652446
      3      C     0.17739799    -0.75041827    -0.26744409
      4      C     1.56103125    -0.20321938    -0.20292951
      5      O     1.85413995     0.93942884     0.08600966
      6      H    -0.82127412     1.04991066     0.20012522
      7      H    -1.91745955    -0.42915894    -0.11338974
      8      H     2.37146090    -0.97364099    -0.37067736
 
Total System Charge             0.00000
 
 *** GOStep4 ***

 Energy gradients wrt nuclear displacements
 ==========================================

     Atom      Cartesian (a.u./angstrom)
                 X         Y         Z
 ----------------------------------------
     1 H    -0.000534 -0.000304  0.000401
     2 C     0.006899  0.000746  0.001000
     3 C    -0.002124 -0.001193  0.005220
     4 C    -0.007979  0.018741 -0.013757
     5 O    -0.000698 -0.005640  0.004758
     6 H     0.000577  0.000597  0.000586
     7 H    -0.006046 -0.002458 -0.001891
     8 H     0.009906 -0.010487  0.003683
 ----------------------------------------
 Mulliken charges used for AMS results%charges...

 dE(predicted):    -0.20403E-03, dE(actual):     0.31456E-03, Trust radius:    0.032268, all in a.u.
 
----------------------------------------------------------------------
Geometry Convergence after Step   4       (Hartree/Angstrom,Angstrom)
----------------------------------------------------------------------
current energy                               -1.68318083 Hartree
energy change                       0.00031456     0.00008000    F
constrained gradient max            0.01873034     0.00100000    F
constrained gradient rms            0.00648981     0.00066667    F
gradient max                        0.01873034
gradient rms                        0.00648981
cart. step max                      0.00649291     0.01000000    T
cart. step rms                      0.00255397     0.00666667    T
 
 
--------
Geometry
--------
Formula: C3H4O
Atoms
  Index Symbol   x (angstrom)   y (angstrom)   z (angstrom)
      1      H     0.09061323    -1.80935522    -0.51244951
      2      C    -0.91312374    -0.00565061    -0.04720841
      3      C     0.17836019    -0.75104302    -0.26605037
      4      C     1.56148394    -0.20741861    -0.19643660
      5      O     1.85552165     0.93936829     0.08337572
      6      H    -0.82245893     1.04937594     0.20036098
      7      H    -1.91406152    -0.42794920    -0.11488629
      8      H     2.36555123    -0.96916403    -0.37401686
 
Total System Charge             0.00000
 
 *** GOStep5 ***

 Energy gradients wrt nuclear displacements
 ==========================================

     Atom      Cartesian (a.u./angstrom)
                 X         Y         Z
 ----------------------------------------
     1 H    -0.000265 -0.000167  0.000279
     2 C     0.002210  0.000383  0.000795
     3 C    -0.000370 -0.001282  0.003473
     4 C    -0.003907  0.007659 -0.010645
     5 O     0.000239 -0.001411  0.003860
     6 H     0.000215  0.000168  0.000371
     7 H    -0.002102 -0.000764 -0.001221
     8 H     0.003979 -0.004586  0.003088
 ----------------------------------------
 Mulliken charges used for AMS results%charges...

 dE(predicted):    -0.24303E-03, dE(actual):    -0.24317E-03, Trust radius:    0.064535, all in a.u.
 
----------------------------------------------------------------------
Geometry Convergence after Step   5       (Hartree/Angstrom,Angstrom)
----------------------------------------------------------------------
current energy                               -1.68342401 Hartree
energy change                      -0.00024317     0.00008000    F
constrained gradient max            0.01065064     0.00100000    F
constrained gradient rms            0.00339711     0.00066667    F
gradient max                        0.01065064
gradient rms                        0.00339711
cart. step max                      0.01557184     0.01000000    F
cart. step rms                      0.00463692     0.00666667    T
 
 
--------
Geometry
--------
Formula: C3H4O
Atoms
  Index Symbol   x (angstrom)   y (angstrom)   z (angstrom)
      1      H     0.09132702    -1.80881523    -0.51382567
      2      C    -0.91297965    -0.00553280    -0.04791026
      3      C     0.17898806    -0.75139799    -0.26380571
      4      C     1.56232865    -0.21285851    -0.18086476
      5      O     1.85548654     0.93787375     0.08339188
      6      H    -0.82321445     1.05091572     0.19282128
      7      H    -1.91197103    -0.42805896    -0.11213554
      8      H     2.36192090    -0.96396245    -0.38498256
 
Total System Charge             0.00000
 
 *** GOStep6 ***

 Energy gradients wrt nuclear displacements
 ==========================================

     Atom      Cartesian (a.u./angstrom)
                 X         Y         Z
 ----------------------------------------
     1 H    -0.000026  0.000148 -0.000418
     2 C    -0.000092 -0.000185  0.000913
     3 C     0.000315  0.000132 -0.000159
     4 C     0.000227  0.000815  0.000580
     5 O    -0.000359 -0.001255 -0.000332
     6 H     0.000011  0.000133 -0.000727
     7 H     0.000078 -0.000045  0.000079
     8 H    -0.000155  0.000257  0.000065
 ----------------------------------------
 Mulliken charges used for AMS results%charges...

 dE(predicted):    -0.14133E-03, dE(actual):    -0.13454E-03, Trust radius:    0.129070, all in a.u.
 
----------------------------------------------------------------------
Geometry Convergence after Step   6       (Hartree/Angstrom,Angstrom)
----------------------------------------------------------------------
current energy                               -1.68355854 Hartree
energy change                      -0.00013454     0.00008000    F
constrained gradient max            0.00126707     0.00100000    F
constrained gradient rms            0.00044408     0.00066667    T
gradient max                        0.00126707
gradient rms                        0.00044408
cart. step max                      0.01345051     0.01000000    F
cart. step rms                      0.00389092     0.00666667    T
 
 
--------
Geometry
--------
Formula: C3H4O
Atoms
  Index Symbol   x (angstrom)   y (angstrom)   z (angstrom)
      1      H     0.09154376    -1.81003415    -0.50860234
      2      C    -0.91326750    -0.00418875    -0.05368515
      3      C     0.17896720    -0.75122933    -0.26433800
      4      C     1.56246202    -0.21289530    -0.18163897
      5      O     1.85579483     0.93980542     0.07681420
      6      H    -0.82312569     1.04764899     0.20627179
      7      H    -1.91213237    -0.42638869    -0.11932543
      8      H     2.36164381    -0.96455465    -0.38280744
 
Total System Charge             0.00000
 
 *** GOStep7 ***

 Energy gradients wrt nuclear displacements
 ==========================================

     Atom      Cartesian (a.u./angstrom)
                 X         Y         Z
 ----------------------------------------
     1 H     0.000026 -0.000135  0.000685
     2 C    -0.000398  0.000491 -0.002189
     3 C     0.000188  0.000010  0.000012
     4 C     0.000293 -0.000942 -0.000065
     5 O     0.000063  0.000454 -0.000038
     6 H     0.000038 -0.000372  0.001292
     7 H     0.000264  0.000003  0.000330
     8 H    -0.000474  0.000491 -0.000025
 ----------------------------------------
 Mulliken charges used for AMS results%charges...

 dE(predicted):    -0.97130E-05, dE(actual):     0.73863E-05, Trust radius:    0.020000, all in a.u.
 
----------------------------------------------------------------------
Geometry Convergence after Step   7       (Hartree/Angstrom,Angstrom)
----------------------------------------------------------------------
current energy                               -1.68355116 Hartree
energy change                       0.00000739     0.00008000    T
constrained gradient max            0.00218454     0.00100000    F
constrained gradient rms            0.00062436     0.00066667    T
gradient max                        0.00218454
gradient rms                        0.00062436
cart. step max                      0.00582067     0.01000000    T
cart. step rms                      0.00176101     0.00666667    T
 
 
--------
Geometry
--------
Formula: C3H4O
Atoms
  Index Symbol   x (angstrom)   y (angstrom)   z (angstrom)
      1      H     0.09147746    -1.80967023    -0.51025496
      2      C    -0.91317399    -0.00518844    -0.04952714
      3      C     0.17892857    -0.75159681    -0.26282122
      4      C     1.56244456    -0.21271668    -0.18141421
      5      O     1.85591781     0.93924051     0.07970498
      6      H    -0.82332575     1.04912077     0.20045112
      7      H    -1.91237939    -0.42665019    -0.11843282
      8      H     2.36199680    -0.96437540    -0.38501709
 
Total System Charge             0.00000
 
 *** GOStep8 ***

 Energy gradients wrt nuclear displacements
 ==========================================

     Atom      Cartesian (a.u./angstrom)
                 X         Y         Z
 ----------------------------------------
     1 H    -0.000004 -0.000039  0.000183
     2 C    -0.000029  0.000030 -0.000095
     3 C     0.000041 -0.000018 -0.000074
     4 C    -0.000105 -0.000211 -0.000043
     5 O     0.000067  0.000307  0.000007
     6 H     0.000014 -0.000062  0.000218
     7 H    -0.000014  0.000002 -0.000162
     8 H     0.000030 -0.000008 -0.000034
 ----------------------------------------
 Mulliken charges used for AMS results%charges...

 dE(predicted):    -0.11410E-04, dE(actual):    -0.10750E-04, Trust radius:    0.040000, all in a.u.
 
---------------------------------------------------------
Geometry Convergence after Step   8       ** CONVERGED **
---------------------------------------------------------
current energy                               -1.68356191 Hartree
energy change                      -0.00001075     0.00008000    T
constrained gradient max            0.00029407     0.00100000    T
constrained gradient rms            0.00010948     0.00066667    T
gradient max                        0.00029407
gradient rms                        0.00010948
cart. step max                      0.00598538     0.01000000    T
cart. step rms                      0.00186829     0.00666667    T
 
Geometry optimization converged

Optimized geometry:
 
--------
Geometry
--------
Formula: C3H4O
Atoms
  Index Symbol   x (angstrom)   y (angstrom)   z (angstrom)
      1      H     0.09147746    -1.80967023    -0.51025496
      2      C    -0.91317399    -0.00518844    -0.04952714
      3      C     0.17892857    -0.75159681    -0.26282122
      4      C     1.56244456    -0.21271668    -0.18141421
      5      O     1.85591781     0.93924051     0.07970498
      6      H    -0.82332575     1.04912077     0.20045112
      7      H    -1.91237939    -0.42665019    -0.11843282
      8      H     2.36199680    -0.96437540    -0.38501709
 
Total System Charge             0.00000
 
Performing a single point calculation on the final geometry ...

 *** adf ***



 ===========================
 A T T A C H E D   F I L E S
 ===========================
  
 Restart
 /scratch/3976/amstmp_8.achiral_catalyst.H_H_I2.Rsub_kid0.193612291/GOStep8.rkf
 *** GOStep8 ***



 ===============================
 M O D E L   P A R A M E T E R S
 ===============================
  
 DENSITY FUNCTIONAL POTENTIAL (scf)
    LDA:                               Exchange only                           == Not Default ==
    Gradient Corrections:              OPTX LYP                                == Not Default ==

 SPIN  (restricted / unrestr.)
    Molecule:                          Restricted                               
    Fragments:                         Restricted                               

 OTHER ASPECTS
    Relativistic Corrections:          scalar (ZORA,MAPA)                       

    Nuclear Charge Density Model:      Point Charge Nuclei                      
    Core Treatment:                    Frozen Orbital(s)                        

    Hyperfine or Zeeman Interaction:   ---                                      



 ===============
 G E O M E T R Y  ***  3D  Molecule  ***
 ===============
  

 ATOMS
 =====                            X Y Z                    CHARGE
                                (Angstrom)             Nucl     +Core       At.Mass
                       --------------------------    ----------------       -------
    1  H               0.0915   -1.8097   -0.5103      1.00      1.00        1.0078
    2  C              -0.9132   -0.0052   -0.0495      6.00      6.00       12.0000
    3  C               0.1789   -0.7516   -0.2628      6.00      6.00       12.0000
    4  C               1.5624   -0.2127   -0.1814      6.00      6.00       12.0000
    5  O               1.8559    0.9392    0.0797      8.00      8.00       15.9949
    6  H              -0.8233    1.0491    0.2005      1.00      1.00        1.0078
    7  H              -1.9124   -0.4267   -0.1184      1.00      1.00        1.0078
    8  H               2.3620   -0.9644   -0.3850      1.00      1.00        1.0078


 FRAGMENTS
 =========                                     Atoms in this Fragment     Cart. coord.s (Angstrom)
                                               -------------------------------------------------------
    1  H                                                 1  H            0.0915   -1.8097   -0.5103
    2  H                                                 6  H           -0.8233    1.0491    0.2005
    3  H                                                 7  H           -1.9124   -0.4267   -0.1184
    4  H                                                 8  H            2.3620   -0.9644   -0.3850
    5  C                                                 2  C           -0.9132   -0.0052   -0.0495
    6  C                                                 3  C            0.1789   -0.7516   -0.2628
    7  C                                                 4  C            1.5624   -0.2127   -0.1814
    8  O                                                 5  O            1.8559    0.9392    0.0797


 Interatomic Distance Matrix (Angstrom)
 --------------------------------------

   1)     0.000
   2)     2.116   0.000
   3)     1.090   1.340   0.000
   4)     2.196   2.488   1.487   0.000
   5)     3.319   2.929   2.406   1.217   0.000
   6)     3.085   1.087   2.112   2.726   2.684   0.000
   7)     2.466   1.087   2.121   3.482   4.013   1.862   0.000
   8)     2.426   3.429   2.197   1.116   2.024   3.814   4.316   0.000

 Min. Distance =    1.0866
 Max. Distance =    4.3163



 =====================================
 S Y M M E T R Y ,   E L E C T R O N S
 =====================================
  
 Symmetry: NOSYM

 Irreducible Representations, including subspecies
 -------------------------------------------------
 A


 Configuration of Valence Electrons
 ==================================
 ( determined in the SCF procedure )

 Total:   30

 Net Charge: 0 (Nuclei minus Electrons)

 Aufbau principle for MO occupations will be applied through SCF cycle no.      49
 Thereafter, the program will assign electrons to MOs that are spatially
 similar to the occupied MOs in a "reference" cycle ("KeepOrbitals").
 The reference cycle is always the PREVIOUS cycle: it will evolve with
 the SCF procedure.
1
 ***************************************************************************************************



                                      ****************************************
                                      *  B U I L D : (Fragments, Functions)  *
                                      ****************************************
  



 =======
 S F O s  ***  (Symmetrized Fragment Orbitals)  ***
 =======
  
 SFOs are linear combinations of (valence) Fragment Orbitals (FOs), such that the SFOs transform as the
 irreducible representations of the (molecular) symmetry group. Each SFO is therefore characterized by
 an irrep of the molecule and by a few (or only one) generating FOs.
 The SFOs constitute a symmetry-adapted basis for the Fock matrix. The MO eigenvector coefficients in
 this basis provide a direct interpretation of the MOs in terms of Frontier Orbital Theory.

 The SFOs are combined with auxiliary Core Functions (CFs) to ensure orthogonalization on the (frozen)
 Core Orbitals (COs). The Core-orthogonalized SFOs (CSFOs) constitute the true Fock basis.

 The FOs, and hence also the (C)SFOs are combinations of the elementary basis functions (BAS). The basis
 functions that participate in the description of the SFOs depend on the irrep. The indices of the
 involved functions are printed below for each irrep.
 (The complete list of primitive basis functions is printed in another section)

 Total nr. of (C)SFOs (summation over all irreps) :   148

 NOTE: a (C)SFO that is defined as a combination of more than one FO is usually NOT normalized.



                                       === A ===
 Nr. of SFOs :  148
 Cartesian basis functions that participate in this irrep (total number =   168) :
      1     2     3     4     5     6     7     8     9    10
     11    12    13    14    15    16    17    18    19    20
     21    22    23    24    25    26    27    28    29    30
     31    32    33    34    35    36    37    38    39    40
     41    42    43    44    45    46    47    48    49    50
     51    52    53    54    57    60    55    58    61    56
     59    62    63    64    65    66    67    68    69    70
     71    72    73    74    75    76    77    78    79    80
     81    82    83    84    87    90    85    88    91    86
     89    92    93    94    95    96    97    98    99   100
    101   102   103   104   105   106   107   108   109   110
    111   112   113   114   117   120   115   118   121   116
    119   122   123   124   125   126   127   128   129   130
    131   132   133   134   135   136   137   138   139   140
    141   142   143   144   147   150   145   148   151   146
    149   152   153   154   155   156   157   158   159   160
    161   162   163   164   165   166   167   168

    SFO  (index         Fragment          Generating    Expansion in Fragment Orbitals
  indx  incl.CFs)   Occup   Orb.Energy   FragmentType  Coeff.   Orbital     on Fragment
 --------------------------------------------------------------------------------------
     1       1      1.000      -0.238 au  H             1.00      1 S               1
                        (      -6.484 eV)
     2       2       --         0.077 au  H             1.00      2 S               1
                        (       2.096 eV)
     3       3       --         1.521 au  H             1.00      3 S               1
                        (      41.380 eV)
     4       4       --         0.410 au  H             1.00      1 P:x             1
                        (      11.162 eV)
     5       5       --         0.410 au  H             1.00      1 P:y             1
                        (      11.162 eV)
     6       6       --         0.410 au  H             1.00      1 P:z             1
                        (      11.162 eV)
     7       7       --         2.567 au  H             1.00      1 D:z2            1
                        (      69.838 eV)
     8       8       --         2.567 au  H             1.00      1 D:x2-y2         1
                        (      69.838 eV)
     9       9       --         2.567 au  H             1.00      1 D:xy            1
                        (      69.838 eV)
    10      10       --         2.567 au  H             1.00      1 D:xz            1
                        (      69.838 eV)
    11      11       --         2.567 au  H             1.00      1 D:yz            1
                        (      69.838 eV)
    12      12      1.000      -0.238 au  H             1.00      1 S               2
                        (      -6.484 eV)
    13      13       --         0.077 au  H             1.00      2 S               2
                        (       2.096 eV)
    14      14       --         1.521 au  H             1.00      3 S               2
                        (      41.380 eV)
    15      15       --         0.410 au  H             1.00      1 P:x             2
                        (      11.162 eV)
    16      16       --         0.410 au  H             1.00      1 P:y             2
                        (      11.162 eV)
    17      17       --         0.410 au  H             1.00      1 P:z             2
                        (      11.162 eV)
    18      18       --         2.567 au  H             1.00      1 D:z2            2
                        (      69.838 eV)
    19      19       --         2.567 au  H             1.00      1 D:x2-y2         2
                        (      69.838 eV)
    20      20       --         2.567 au  H             1.00      1 D:xy            2
                        (      69.838 eV)
    21      21       --         2.567 au  H             1.00      1 D:xz            2
                        (      69.838 eV)
    22      22       --         2.567 au  H             1.00      1 D:yz            2
                        (      69.838 eV)
    23      23      1.000      -0.238 au  H             1.00      1 S               3
                        (      -6.484 eV)
    24      24       --         0.077 au  H             1.00      2 S               3
                        (       2.096 eV)
    25      25       --         1.521 au  H             1.00      3 S               3
                        (      41.380 eV)
    26      26       --         0.410 au  H             1.00      1 P:x             3
                        (      11.162 eV)
    27      27       --         0.410 au  H             1.00      1 P:y             3
                        (      11.162 eV)
    28      28       --         0.410 au  H             1.00      1 P:z             3
                        (      11.162 eV)
    29      29       --         2.567 au  H             1.00      1 D:z2            3
                        (      69.838 eV)
    30      30       --         2.567 au  H             1.00      1 D:x2-y2         3
                        (      69.838 eV)
    31      31       --         2.567 au  H             1.00      1 D:xy            3
                        (      69.838 eV)
    32      32       --         2.567 au  H             1.00      1 D:xz            3
                        (      69.838 eV)
    33      33       --         2.567 au  H             1.00      1 D:yz            3
                        (      69.838 eV)
    34      34      1.000      -0.238 au  H             1.00      1 S               4
                        (      -6.484 eV)
    35      35       --         0.077 au  H             1.00      2 S               4
                        (       2.096 eV)
    36      36       --         1.521 au  H             1.00      3 S               4
                        (      41.380 eV)
    37      37       --         0.410 au  H             1.00      1 P:x             4
                        (      11.162 eV)
    38      38       --         0.410 au  H             1.00      1 P:y             4
                        (      11.162 eV)
    39      39       --         0.410 au  H             1.00      1 P:z             4
                        (      11.162 eV)
    40      40       --         2.567 au  H             1.00      1 D:z2            4
                        (      69.838 eV)
    41      41       --         2.567 au  H             1.00      1 D:x2-y2         4
                        (      69.838 eV)
    42      42       --         2.567 au  H             1.00      1 D:xy            4
                        (      69.838 eV)
    43      43       --         2.567 au  H             1.00      1 D:xz            4
                        (      69.838 eV)
    44      44       --         2.567 au  H             1.00      1 D:yz            4
                        (      69.838 eV)
    45      45      2.000     -10.064 au  C             1.00      1 S               5
                        (    -273.865 eV)
    46      46      2.000      -0.507 au  C             1.00      2 S               5
                        (     -13.802 eV)
    47      47       --         0.384 au  C             1.00      3 S               5
                        (      10.456 eV)
    48      48       --         5.458 au  C             1.00      4 S               5
                        (     148.511 eV)
    49      49       --        49.970 au  C             1.00      5 S               5
                        (    1359.766 eV)
    50      50      0.667      -0.189 au  C             1.00      1 P:x             5
                        (      -5.135 eV)
    51      51       --         0.168 au  C             1.00      2 P:x             5
                        (       4.559 eV)
    52      52       --         2.056 au  C             1.00      3 P:x             5
                        (      55.959 eV)
    53      53      0.667      -0.189 au  C             1.00      1 P:y             5
                        (      -5.135 eV)
    54      54       --         0.168 au  C             1.00      2 P:y             5
                        (       4.559 eV)
    55      55       --         2.056 au  C             1.00      3 P:y             5
                        (      55.959 eV)
    56      56      0.667      -0.189 au  C             1.00      1 P:z             5
                        (      -5.135 eV)
    57      57       --         0.168 au  C             1.00      2 P:z             5
                        (       4.559 eV)
    58      58       --         2.056 au  C             1.00      3 P:z             5
                        (      55.959 eV)
    59      59       --         1.235 au  C             1.00      1 D:z2            5
                        (      33.605 eV)
    60      60       --         1.235 au  C             1.00      1 D:x2-y2         5
                        (      33.605 eV)
    61      61       --         1.235 au  C             1.00      1 D:xy            5
                        (      33.605 eV)
    62      62       --         1.235 au  C             1.00      1 D:xz            5
                        (      33.605 eV)
    63      63       --         1.235 au  C             1.00      1 D:yz            5
                        (      33.605 eV)
    64      64       --         4.005 au  C             1.00      1 F:z3            5
                        (     108.969 eV)
    65      65       --         4.005 au  C             1.00      1 F:z             5
                        (     108.969 eV)
    66      66       --         4.005 au  C             1.00      1 F:xyz           5
                        (     108.969 eV)
    67      67       --         4.005 au  C             1.00      1 F:z2x           5
                        (     108.969 eV)
    68      68       --         4.005 au  C             1.00      1 F:z2y           5
                        (     108.969 eV)
    69      69       --         4.005 au  C             1.00      1 F:x             5
                        (     108.969 eV)
    70      70       --         4.005 au  C             1.00      1 F:y             5
                        (     108.969 eV)
    71      71      2.000     -10.064 au  C             1.00      1 S               6
                        (    -273.865 eV)
    72      72      2.000      -0.507 au  C             1.00      2 S               6
                        (     -13.802 eV)
    73      73       --         0.384 au  C             1.00      3 S               6
                        (      10.456 eV)
    74      74       --         5.458 au  C             1.00      4 S               6
                        (     148.511 eV)
    75      75       --        49.970 au  C             1.00      5 S               6
                        (    1359.766 eV)
    76      76      0.667      -0.189 au  C             1.00      1 P:x             6
                        (      -5.135 eV)
    77      77       --         0.168 au  C             1.00      2 P:x             6
                        (       4.559 eV)
    78      78       --         2.056 au  C             1.00      3 P:x             6
                        (      55.959 eV)
    79      79      0.667      -0.189 au  C             1.00      1 P:y             6
                        (      -5.135 eV)
    80      80       --         0.168 au  C             1.00      2 P:y             6
                        (       4.559 eV)
    81      81       --         2.056 au  C             1.00      3 P:y             6
                        (      55.959 eV)
    82      82      0.667      -0.189 au  C             1.00      1 P:z             6
                        (      -5.135 eV)
    83      83       --         0.168 au  C             1.00      2 P:z             6
                        (       4.559 eV)
    84      84       --         2.056 au  C             1.00      3 P:z             6
                        (      55.959 eV)
    85      85       --         1.235 au  C             1.00      1 D:z2            6
                        (      33.605 eV)
    86      86       --         1.235 au  C             1.00      1 D:x2-y2         6
                        (      33.605 eV)
    87      87       --         1.235 au  C             1.00      1 D:xy            6
                        (      33.605 eV)
    88      88       --         1.235 au  C             1.00      1 D:xz            6
                        (      33.605 eV)
    89      89       --         1.235 au  C             1.00      1 D:yz            6
                        (      33.605 eV)
    90      90       --         4.005 au  C             1.00      1 F:z3            6
                        (     108.969 eV)
    91      91       --         4.005 au  C             1.00      1 F:z             6
                        (     108.969 eV)
    92      92       --         4.005 au  C             1.00      1 F:xyz           6
                        (     108.969 eV)
    93      93       --         4.005 au  C             1.00      1 F:z2x           6
                        (     108.969 eV)
    94      94       --         4.005 au  C             1.00      1 F:z2y           6
                        (     108.969 eV)
    95      95       --         4.005 au  C             1.00      1 F:x             6
                        (     108.969 eV)
    96      96       --         4.005 au  C             1.00      1 F:y             6
                        (     108.969 eV)
    97      97      2.000     -10.064 au  C             1.00      1 S               7
                        (    -273.865 eV)
    98      98      2.000      -0.507 au  C             1.00      2 S               7
                        (     -13.802 eV)
    99      99       --         0.384 au  C             1.00      3 S               7
                        (      10.456 eV)
   100     100       --         5.458 au  C             1.00      4 S               7
                        (     148.511 eV)
   101     101       --        49.970 au  C             1.00      5 S               7
                        (    1359.766 eV)
   102     102      0.667      -0.189 au  C             1.00      1 P:x             7
                        (      -5.135 eV)
   103     103       --         0.168 au  C             1.00      2 P:x             7
                        (       4.559 eV)
   104     104       --         2.056 au  C             1.00      3 P:x             7
                        (      55.959 eV)
   105     105      0.667      -0.189 au  C             1.00      1 P:y             7
                        (      -5.135 eV)
   106     106       --         0.168 au  C             1.00      2 P:y             7
                        (       4.559 eV)
   107     107       --         2.056 au  C             1.00      3 P:y             7
                        (      55.959 eV)
   108     108      0.667      -0.189 au  C             1.00      1 P:z             7
                        (      -5.135 eV)
   109     109       --         0.168 au  C             1.00      2 P:z             7
                        (       4.559 eV)
   110     110       --         2.056 au  C             1.00      3 P:z             7
                        (      55.959 eV)
   111     111       --         1.235 au  C             1.00      1 D:z2            7
                        (      33.605 eV)
   112     112       --         1.235 au  C             1.00      1 D:x2-y2         7
                        (      33.605 eV)
   113     113       --         1.235 au  C             1.00      1 D:xy            7
                        (      33.605 eV)
   114     114       --         1.235 au  C             1.00      1 D:xz            7
                        (      33.605 eV)
   115     115       --         1.235 au  C             1.00      1 D:yz            7
                        (      33.605 eV)
   116     116       --         4.005 au  C             1.00      1 F:z3            7
                        (     108.969 eV)
   117     117       --         4.005 au  C             1.00      1 F:z             7
                        (     108.969 eV)
   118     118       --         4.005 au  C             1.00      1 F:xyz           7
                        (     108.969 eV)
   119     119       --         4.005 au  C             1.00      1 F:z2x           7
                        (     108.969 eV)
   120     120       --         4.005 au  C             1.00      1 F:z2y           7
                        (     108.969 eV)
   121     121       --         4.005 au  C             1.00      1 F:x             7
                        (     108.969 eV)
   122     122       --         4.005 au  C             1.00      1 F:y             7
                        (     108.969 eV)
   123     123      2.000     -18.926 au  O             1.00      1 S               8
                        (    -515.001 eV)
   124     124      2.000      -0.887 au  O             1.00      2 S               8
                        (     -24.136 eV)
   125     125       --         0.804 au  O             1.00      3 S               8
                        (      21.890 eV)
   126     126       --        13.488 au  O             1.00      4 S               8
                        (     367.032 eV)
   127     127       --       121.767 au  O             1.00      5 S               8
                        (    3313.451 eV)
   128     128      1.333      -0.329 au  O             1.00      1 P:x             8
                        (      -8.949 eV)
   129     129       --         0.351 au  O             1.00      2 P:x             8
                        (       9.557 eV)
   130     130       --         3.863 au  O             1.00      3 P:x             8
                        (     105.120 eV)
   131     131      1.333      -0.329 au  O             1.00      1 P:y             8
                        (      -8.949 eV)
   132     132       --         0.351 au  O             1.00      2 P:y             8
                        (       9.557 eV)
   133     133       --         3.863 au  O             1.00      3 P:y             8
                        (     105.120 eV)
   134     134      1.333      -0.329 au  O             1.00      1 P:z             8
                        (      -8.949 eV)
   135     135       --         0.351 au  O             1.00      2 P:z             8
                        (       9.557 eV)
   136     136       --         3.863 au  O             1.00      3 P:z             8
                        (     105.120 eV)
   137     137       --         1.072 au  O             1.00      1 D:z2            8
                        (      29.175 eV)
   138     138       --         1.072 au  O             1.00      1 D:x2-y2         8
                        (      29.175 eV)
   139     139       --         1.072 au  O             1.00      1 D:xy            8
                        (      29.175 eV)
   140     140       --         1.072 au  O             1.00      1 D:xz            8
                        (      29.175 eV)
   141     141       --         1.072 au  O             1.00      1 D:yz            8
                        (      29.175 eV)
   142     142       --         3.353 au  O             1.00      1 F:z3            8
                        (      91.230 eV)
   143     143       --         3.353 au  O             1.00      1 F:z             8
                        (      91.230 eV)
   144     144       --         3.353 au  O             1.00      1 F:xyz           8
                        (      91.230 eV)
   145     145       --         3.353 au  O             1.00      1 F:z2x           8
                        (      91.230 eV)
   146     146       --         3.353 au  O             1.00      1 F:z2y           8
                        (      91.230 eV)
   147     147       --         3.353 au  O             1.00      1 F:x             8
                        (      91.230 eV)
   148     148       --         3.353 au  O             1.00      1 F:y             8
                        (      91.230 eV)



 ================================
 (Slater-type)  F U N C T I O N S  ***  (Basis and Fit)  ***
 ================================
  

 Atom Type    1  (H)
 ==============

 Valence Basis Sets:   5
 -----------------------
   1 S    0.690000
   1 S    0.920000
   1 S    1.580000
   2 P    1.250000
   3 D    2.500000

 Atom Type    2  (C)
 ==============

 Valence Basis Sets:  10
 -----------------------
   1 S    7.680000
   1 S    5.000000
   2 S    1.280000
   2 S    2.100000
   2 S    4.600000
   2 P    0.820000
   2 P    1.480000
   2 P    2.940000
   3 D    2.200000
   4 F    3.300000

 Atom Type    3  (O)
 ==============

 Valence Basis Sets:  10
 -----------------------
   1 S    9.800000
   1 S    6.800000
   2 S    7.580000
   2 S    2.880000
   2 S    1.720000
   2 P    4.080000
   2 P    2.080000
   2 P    1.120000
   3 D    2.000000
   4 F    3.000000


 BAS: List of all Elementary Cartesian Basis Functions
 =====================================================

 The numbering in the list below (to the right of the function characteristics) is referred
 to in print-outs of MO eigenvectors and Mulliken populations in the BAS representation
 (as contrasted to the SFO representation).

 Notes:
 1. The functions are characterized by a polynomial prefactor (powers of x,y,z and r) and
    an exponential decay factor alpha.
 2. Since the basis sets are specific for an atom TYPE, the individual functions occur on
    all atoms of that type.
 3. The word 'Core' in the left margin signals that it is a Core Function (CF) : not a
    degree of freedom in the valence set, but only used to ensure orthogonalization of
    the other valence basis functions on the frozen Core Orbitals.


 (power of) X  Y  Z  R     Alpha  on Atom
            ==========     =====     ==========

 H                                    1    2    3    4
                                  ---------------------------------------------------------------------------
            0  0  0  0     0.690      1   13   25   37
            0  0  0  0     0.920      2   14   26   38
            0  0  0  0     1.580      3   15   27   39
            1  0  0  0     1.250      4   16   28   40
            0  1  0  0     1.250      5   17   29   41
            0  0  1  0     1.250      6   18   30   42
            2  0  0  0     2.500      7   19   31   43
            1  1  0  0     2.500      8   20   32   44
            1  0  1  0     2.500      9   21   33   45
            0  2  0  0     2.500     10   22   34   46
            0  1  1  0     2.500     11   23   35   47
            0  0  2  0     2.500     12   24   36   48

 C                                    5    6    7
                                  ---------------------------------------------------------------------------
            0  0  0  0     7.680     49   79  109
            0  0  0  0     5.000     50   80  110
            0  0  0  1     1.280     51   81  111
            0  0  0  1     2.100     52   82  112
            0  0  0  1     4.600     53   83  113
            1  0  0  0     0.820     54   84  114
            0  1  0  0     0.820     55   85  115
            0  0  1  0     0.820     56   86  116
            1  0  0  0     1.480     57   87  117
            0  1  0  0     1.480     58   88  118
            0  0  1  0     1.480     59   89  119
            1  0  0  0     2.940     60   90  120
            0  1  0  0     2.940     61   91  121
            0  0  1  0     2.940     62   92  122
            2  0  0  0     2.200     63   93  123
            1  1  0  0     2.200     64   94  124
            1  0  1  0     2.200     65   95  125
            0  2  0  0     2.200     66   96  126
            0  1  1  0     2.200     67   97  127
            0  0  2  0     2.200     68   98  128
            3  0  0  0     3.300     69   99  129
            2  1  0  0     3.300     70  100  130
            2  0  1  0     3.300     71  101  131
            1  2  0  0     3.300     72  102  132
            1  1  1  0     3.300     73  103  133
            1  0  2  0     3.300     74  104  134
            0  3  0  0     3.300     75  105  135
            0  2  1  0     3.300     76  106  136
            0  1  2  0     3.300     77  107  137
            0  0  3  0     3.300     78  108  138

 O                                    8
                                  ---------------------------------------------------------------------------
            0  0  0  0     9.800    139
            0  0  0  0     6.800    140
            0  0  0  1     7.580    141
            0  0  0  1     2.880    142
            0  0  0  1     1.720    143
            1  0  0  0     4.080    144
            0  1  0  0     4.080    145
            0  0  1  0     4.080    146
            1  0  0  0     2.080    147
            0  1  0  0     2.080    148
            0  0  1  0     2.080    149
            1  0  0  0     1.120    150
            0  1  0  0     1.120    151
            0  0  1  0     1.120    152
            2  0  0  0     2.000    153
            1  1  0  0     2.000    154
            1  0  1  0     2.000    155
            0  2  0  0     2.000    156
            0  1  1  0     2.000    157
            0  0  2  0     2.000    158
            3  0  0  0     3.000    159
            2  1  0  0     3.000    160
            2  0  1  0     3.000    161
            1  2  0  0     3.000    162
            1  1  1  0     3.000    163
            1  0  2  0     3.000    164
            0  3  0  0     3.000    165
            0  2  1  0     3.000    166
            0  1  2  0     3.000    167
            0  0  3  0     3.000    168

 Total number of charge fitting functions (nprimf)       536
 Total number of Cartesian basis functions (naos)        168
 Total number of Cartesian core functions  (ncos)          0

1
 ***************************************************************************************************



                                              ***********************
                                              *  T E C H N I C A L  *
                                              ***********************
  



 =============================================================
 P A R A L L E L I Z A T I O N  and  V E C T O R I Z A T I O N
 =============================================================
  
 Nr of parallel processes:                                4
 Maximum vector length in NumInt loops:                 128



 =====================
 S C F   U P D A T E S
 =====================
  
 Max. nr. of cycles:                                99
 Convergence criterion:                              0.0000010000
   secondary criterion:                              0.0010000000

 Mix parameter (when DIIS does not apply):           0.2000000000
 Mixed ADIIS+SDIIS will be used                  
    Max number of expansion vectors:                10
    Pure ADIIS when Max([F,P]) is above              0.1000000000
    Pure SDIIS when Max([F,P]) is below              0.0010000000
 Automatic ElectronSmearing (in case of problematic SCF convergence) disabled



 =================
 P R E C I S I O N  ***  (General: NumInt, NeglectFunctionTails, ...)  ***
 =================
  

 NumInt:           Target precision:                 8.0000000000
 -------           Initial precision:                8.0000000000
                   Min. precision (optimization):    8.0000000000

 Neglect Functions:          Basis functions:        0.1000000000E-09
 ------------------          Fit functions:          0.1000000000E-09



 ===========================
 L I N E A R   S C A L I N G
 ===========================
  

 Cut-off radii density fit:                        0.1000000000E-11
 Overlap cut-off criterion AO matrix elements:     0.1000000000E-09
 Cut-offs for Coulomb potential and fitted density:0.1000000000E-11
 Cut-off criterion for Coulomb multipole terms:    0.1000000000E-11
 Progressive Convergence parameter:                 0.000000000    

 Number of elements of the density matrix on this node (used, total):      3774     14196



 ===========================================
 Numerical Integration : Fuzzy Cells (Becke)
 ===========================================
  
 Becke grid quality: VERYGOOD       
  
 Lebedev angular grid order:             min:  13 max:  41
 Nr. of radial points:                   min:  64 max:  72

 Total nr. of points:     190067
 Nr. of blocks:             1485
 Block length:               128
 Nr. of dummy points:         13


 Test of Precision of the Numerical Integration Grid
 ===================================================

 Integral of the Total Core Density:                   0.00000000000000



 ========================
 Density Fitting (zlmFit)
 ========================
  
 ZlmFit Fit Quality: VERYGOOD       
  
 Max L-expansion:                        min:  10 max:  11
 Nr. of radial interpolation points:     min: 130 max: 180



 =====
 S C F  ***  ScaSCF  ***
 =====
  
 Initial density matrix is taken from previous geometry

 CYCLE    1
  ***********************************************************
  ** : orbital data taken from :/scratch/3976/amstmp_8.achiral_catalyst.H_H_I2.Rsub_kid0.193612291/GOStep8.rkf
  ***********************************************************
 SCF Error: norm([F,P])=      0.000000043822, max([F,P])=      0.000000010770
 orbitals (Q,E):
 ---------------
 A :6...25           ( 2.00    -0.7305)  ( 2.00    -0.6035)  ( 2.00    -0.4935)  ( 2.00    -0.4588)
                     ( 2.00    -0.4007)  ( 2.00    -0.3806)  ( 2.00    -0.3611)  ( 2.00    -0.3425)
                     ( 2.00    -0.2638)  ( 2.00    -0.2169)  ( 0.00    -0.1107)  ( 0.00    -0.0125)
                     ( 0.00     0.0066)  ( 0.00     0.0124)  ( 0.00     0.0312)  ( 0.00     0.0574)
                     ( 0.00     0.1157)  ( 0.00     0.1329)  ( 0.00     0.1675)  ( 0.00     0.1831)

 CYCLE    2
   MIX coefficients:  0.8000  0.2000
 SCF Error: norm([F,P])=      0.000000056889, max([F,P])=      0.000000015268
 orbitals (Q,E):
 ---------------
 A :6...16           ( 2.00    -0.7305)  ( 2.00    -0.6035)  ( 2.00    -0.4935)  ( 2.00    -0.4588)
                     ( 2.00    -0.4007)  ( 2.00    -0.3806)  ( 2.00    -0.3611)  ( 2.00    -0.3425)
                     ( 2.00    -0.2638)  ( 2.00    -0.2169)  ( 0.00    -0.1107)

 SCF CONVERGED

 CYCLE    3
1
 ***************************************************************************************************



                                                *******************
                                                *  R E S U L T S  *
                                                *******************
  
 *** Using FIT density in Focky
   MIX coefficients:  0.8000  0.2000
 SCF Error: norm([F,P])=      0.000000030394, max([F,P])=      0.000000007763

 Scaled ZORA Orbital Energies, per Irrep and Spin:
 =================================================
                        Occup              E (au)              E (eV)       Diff (eV) with prev. cycle
                        -----      --------------------        ------       --------------------------
 A
               6        2.000     -0.73054752630486E+00       -19.879              -4.30E-07
               7        2.000     -0.60351879409078E+00       -16.423              -3.51E-07
               8        2.000     -0.49347446486689E+00       -13.428              -2.55E-07
               9        2.000     -0.45879798590818E+00       -12.485              -3.21E-07
              10        2.000     -0.40073196828935E+00       -10.904              -3.73E-07
              11        2.000     -0.38056551755677E+00       -10.356              -3.23E-07
              12        2.000     -0.36106253536995E+00        -9.825              -4.09E-07
              13        2.000     -0.34245215067002E+00        -9.319              -2.57E-07
              14        2.000     -0.26381712703793E+00        -7.179              -3.57E-07
              15        2.000     -0.21690071277329E+00        -5.902              -3.55E-07
              16        0.000     -0.11069490240849E+00        -3.012
              17        0.000     -0.12464900605026E-01        -0.339
              18        0.000      0.65823347700837E-02         0.179
              19        0.000      0.12358558774855E-01         0.336
              20        0.000      0.31227413831190E-01         0.850
              21        0.000      0.57351352325152E-01         1.561
              22        0.000      0.11573350721642E+00         3.149
              23        0.000      0.13285006760976E+00         3.615
              24        0.000      0.16745182263954E+00         4.557
              25        0.000      0.18313691173403E+00         4.983
  
 HOMO :       15 A                -0.21690071277329E+00
 LUMO :       16 A                -0.11069490240849E+00
  


 All Electron Calculation, thus no Orbital Energies of the Core Orbitals are calculated


 Fit test: (difference of exact and fit density, squared integrated, result summed over spins)
         Sum-of-Fragments:                             0.00000000057502
         Orthogonalized Fragments:                     0.00000101636203
         SCF:                                          0.00000224132586



 ==========================
 Electron Density at Nuclei
 ==========================
  
 The electron density is calculated at points on a small sphere around the center of a nucleus.
 The printed electron density is the average electron density on these points.
 The radius of the sphere is the printed approximate finite nuclear radius.
 Note: ZORA-4 density is used, which includes small component density

         Atom        Nuclear Radius (Angstrom)             Electron Density (a.u.)
         ----        -------------------------             -----------------------
     1)   H                 0.0000181514                                0.50470
     2)   C                 0.0000320678                              126.90748
     3)   C                 0.0000320678                              126.88156
     4)   C                 0.0000320678                              126.95336
     5)   O                 0.0000345546                              313.34813
     6)   H                 0.0000181514                                0.50232
     7)   H                 0.0000181514                                0.50347
     8)   H                 0.0000181514                                0.50359



 =======================================
 M U L L I K E N   P O P U L A T I O N S
 =======================================
  
 The survey below gives for each atom:
 a) the total charge (Z minus electrons)
 b) the net spin polarization (nr of electrons spin-A minus spin-B)
 c) for each spin the atomic electron valence density (integrated) per L-value.

 Atom              Charge    Spin density          S         P         D         F
 ----              ------    ------------       ------    ------    ------    ------
 1 H              -0.2018                       1.1274    0.0695    0.0049    0.0000
 2 C               0.5048                       3.0357    2.4161    0.0401    0.0033
 3 C               0.1671                       3.1187    2.6568    0.0530    0.0045
 4 C               0.6560                       2.9865    2.2379    0.1121    0.0074
 5 O              -0.4814                       3.8407    4.5784    0.0562    0.0061
 6 H              -0.1734                       1.0918    0.0762    0.0053    0.0000
 7 H              -0.2139                       1.1319    0.0768    0.0053    0.0000
 8 H              -0.2573                       1.1910    0.0616    0.0047    0.0000

 Populations of individual BAS functions
 ----------------------------------------
 1 H            0.2681  0.5364  0.3229  0.0168  0.0321  0.0206 -0.0052  0.0018  0.0001  0.0108
                0.0014 -0.0041
 6 H            0.2190  0.5448  0.3280  0.0225  0.0345  0.0192 -0.0058  0.0021  0.0001  0.0111
                0.0014 -0.0036
 7 H            0.2750  0.5374  0.3195  0.0304  0.0248  0.0216  0.0092  0.0018  0.0015 -0.0028
                0.0002 -0.0046
 8 H            0.3410  0.5412  0.3088  0.0233  0.0253  0.0130  0.0032  0.0015  0.0007  0.0020
                0.0007 -0.0033
 2 C            0.4738  1.5468  0.1639  0.9348 -0.0836 -0.2734 -0.2617  0.0798  0.8613  0.8713
                0.6289  0.1968  0.1896  0.1233  0.0194  0.0106  0.0063  0.0132  0.0037 -0.0132
                0.0039  0.0025  0.0032  0.0006  0.0004 -0.0033  0.0013  0.0016 -0.0028 -0.0041
 3 C            0.4732  1.5468  0.2836  0.8938 -0.0787 -0.1516 -0.2030  0.1471  0.8023  0.8572
                0.6988  0.1886  0.1824  0.1351  0.0281  0.0146  0.0073  0.0137  0.0046 -0.0153
                0.0063  0.0045  0.0056 -0.0002  0.0004 -0.0045  0.0003  0.0016 -0.0035 -0.0060
 4 C            0.4729  1.5481  0.1274  0.9222 -0.0841 -0.2897 -0.0811  0.0002  0.8590  0.6620
                0.5818  0.1847  0.2016  0.1194  0.0166  0.0515  0.0103  0.0288  0.0164 -0.0114
                0.0019  0.0004  0.0013  0.0030  0.0005 -0.0027  0.0067  0.0054 -0.0043 -0.0048
 5 O            0.6039  1.4072 -0.0444  1.0502  0.8238  0.3188  0.2601  0.2203  0.9937  0.8783
                0.7807  0.5038  0.2877  0.3349 -0.0069  0.0144  0.0022  0.0258  0.0186  0.0020
               -0.0096 -0.0086 -0.0040  0.0113  0.0005 -0.0000  0.0168  0.0107 -0.0059 -0.0051

 Gross Charges per Atom (Z minus electrons)
 ==========================================
            -0.2018    0.5048    0.1671    0.6560   -0.4814   -0.1734   -0.2139   -0.2573
 Net Total: -0.00000000


 Atom-Atom Population Matrix (off-diagonal elements not doubled)
 ===============================================================

     1 :     1.0396
     2 :    -0.0788    4.2415
     3 :     0.3962    0.6150    4.7136
     4 :    -0.0745   -0.0112    0.4128    4.1190
     5 :     0.0100   -0.0074   -0.0571    0.5722    8.0340
     6 :     0.0167    0.3834   -0.0222   -0.0397    0.0123    0.9917
     7 :    -0.0612    0.3568   -0.0369    0.0033   -0.0014   -0.1607    1.1208
     8 :    -0.0464   -0.0041   -0.1884    0.3620   -0.0811   -0.0082   -0.0069    1.2302



 =================================================
 H I R S H F E L D   C H A R G E   A N A L Y S I S
 =================================================
  
 For each fragment: the (numerical) integral of rho(scf) * rho(fragment)/rho(sum-of-fragments)
 (nuclear charges are included, electrons are counted negative)

 The fragments and their ordering are defined in the early G E O M E T R Y output section.
 If you use single-atom fragments, this usually implies that all atoms of the same
 chemical type are grouped together. This may not be the order in which you listed them
 in the input file!

    1  H                         0.0493
    2  H                         0.0576
    3  H                         0.0579
    4  H                         0.0359
    5  C                        -0.0425
    6  C                        -0.0512
    7  C                         0.1097
    8  O                        -0.2167

 Sum of these charges (accuracy NumInt/Tails) =           0.00000127



 =============================
 V O R O N O I   C H A R G E S
 =============================
  
 For each atom: the (numerical) integral of the total electronic charge density in its Voronoi cell,
 i.e. the region of space that is closer to that atom than to any other atom.
 (cf. Wigner-Seitz cells in crystals)

 Within the Voronoi cell the subintegrals over the atomic sphere and the remaining part are evaluated
 separately to give the numbers of electrons (negative charge) in these regions.
 The net total charge in the cell (including the nuclear charge) is also given.

 Values are provided for
    a) the Initial (sum-of-fragments) density
    b) the Orthogonalized-Fragments density
    c) the SCF density
    d) the Voronoi Deformation Density (VDD): the difference SCF-Initial for the complete atomic cell


  Atom                Initial                    OrthFrag                   SCF
             Sphere RestCell NetTotal   Sphere RestCell NetTotal   Sphere RestCell NetTotal      VDD
 -----       ------------------------   ------------------------   ------------------------    -----
    1 H      -0.080   -1.458   -0.539   -0.103   -1.304   -0.407   -0.116   -1.369   -0.485    0.054
    2 C      -2.150   -2.812    1.038   -2.266   -2.952    0.782   -2.174   -2.830    0.997   -0.042
    3 C      -2.150   -3.280    0.569   -2.280   -3.301    0.419   -2.175   -3.336    0.489   -0.080
    4 C      -2.152   -3.209    0.639   -2.260   -3.208    0.532   -2.168   -3.070    0.761    0.122
    5 O      -3.336   -4.806   -0.141   -3.560   -4.570   -0.130   -3.366   -5.004   -0.370   -0.229
    6 H      -0.081   -1.463   -0.543   -0.103   -1.301   -0.404   -0.115   -1.356   -0.471    0.072
    7 H      -0.081   -1.438   -0.518   -0.103   -1.292   -0.395   -0.116   -1.343   -0.458    0.060
    8 H      -0.079   -1.426   -0.505   -0.101   -1.295   -0.396   -0.115   -1.348   -0.463    0.042
 ---------------------------------------------------------------------------------------------------
 Total NetCharge:               0.000                      0.000                      0.000    0.000
 (accuracy NumInt/Tails)

 Remark: the 'NetTotal' Voronoi charges often do not match the Mulliken and/or Hirshfeld charges very
 well. This is caused by the fact that chemically different atoms are not treated in accordance with
 their relative sizes. (Voronoi cells are defined by boundary planes halfway between the atoms.)
 However, the CHANGES in charge, comparing 'Initial' to 'SCF' for instance, do give a fair indication
 of the flow of charge caused by the relaxation from sum-of-fragments to self-consistency.

 Warning: the absolute accuracy of the VDD charges obtained using the Fuzzy Cells (Becke) integration
 scheme is much poorer than the one obtained with an 'equivalent' Voronoi integration grid. 



 =================================================================
 M U L T I P O L E   D E R I V E D   C H A R G E   A N A L Y S I S
 =================================================================

 This charge analysis uses the atomic multipoles (obtained from the fitted density) up to some level X,
 and reconstructs these multipoles exactly (up to level X) by distributing charges over all atoms.
 This is achieved by using Lagrange multipliers and a weight function to keep the multipoles local.

 Dummy atoms can be included (by setting INCDUM in MDC-block to 1) to obtain a fractional charge.
 This is generally useful and necessary only for small symmetrical molecules, when there are not
 enough degrees of freedom to reconstruct the multipoles.

 Since the atomic multipoles are reconstructed up to level X,
 the molecular multipoles are represented also up to level X.
 The recommended level is to reconstruct up to quadrupole : -> MDC-q charges.

 See: M. Swart, P.Th. van Duijnen, J.G. Snijders, J.Comput.Chem., (2001), p. 79-88.

 ------------------------------------------------------------- 
 Atomic electronic multipole moments from SCF equations (a.u.)
 ------------------------------------------------------------- 

   atom        charge        dip-x     dip-y     dip-z      quad-xx   quad-xy   quad-xz   quad-yy   quad-yz   quad-zz
 --------------------------------------------------------------------------------------------------------------------
    1 H     -0.058179    -0.001994 -0.021388 -0.004869    -0.031597  0.020717  0.001683  0.192840  0.058352 -0.161242
    2 C      0.173199    -0.061573  0.059414  0.016172     0.436508  0.005062 -0.025645  0.315709  0.180659 -0.752217
    3 C      0.066729     0.023905 -0.054472 -0.013666     0.464957 -0.028066 -0.037292  0.379236  0.205839 -0.844193
    4 C      0.299005     0.069652  0.009368 -0.000268     0.145810  0.013962 -0.008275  0.201784  0.091020 -0.347594
    5 O     -0.334397    -0.079335 -0.300496 -0.068011    -0.418789  0.157455  0.043006  0.525301  0.098985 -0.106512
    6 H     -0.036751     0.008207  0.029412  0.006887    -0.056278  0.009715  0.000289  0.186564  0.053525 -0.130286
    7 H     -0.047479    -0.024507 -0.009799 -0.001668     0.170813  0.066220  0.008858 -0.017163  0.020737 -0.153650
    8 H     -0.062126     0.011411  0.018306  0.003916     0.075765 -0.055228 -0.017123  0.025598  0.023182 -0.101363

 --------------------------------------- 
 Multipole derived atomic charges (a.u.)
 --------------------------------------- 

 The MDC-m charges are just the Monopole terms in the multipole expansion, while for the MDC-d charges
 also the Dipoles are reconstructed. The usually preferred charges are the MDC-q charges.
 These reconstruct the Monopoles, Dipoles and Quadrupoles (both atomic AND molecular).

        Atom    Level:     MDC-m        MDC-d        MDC-q
 ---------------------------------------------------------
     1     H           -0.058179    -0.022222   -32.837072
     2     C            0.173199     0.161079   -12.382442
     3     C            0.066729     0.048566   101.153611
     4     C            0.299005     0.289525  -114.375035
     5     O           -0.334397    -0.406510    29.989426
     6     H           -0.036751    -0.012739    -3.274550
     7     H           -0.047479    -0.048885    -4.363105
     8     H           -0.062126    -0.008814    36.089167

 ------------------------------------------------ 
 Average absolute deviations in atomic multipoles
 ------------------------------------------------ 

 Stated here are the average differences between the atomic multipoles
 and the reconstructed atomic multipoles (from the distributed charges).
 If these values are not zero, this means there are not enough degrees of freedom,
 to be able to reconstruct the atomic multipoles. (This usually happens only
 for small and/or highly symmetric molecules). If this is the case, one could add
 dummy atoms as extra point charges (and setting INCDUM in MDC-block to 1).

 Level:                                 MDC-d        MDC-q
 ---------------------------------------------------------
 Charge   (a.u.)                       0.0000       0.0000
 Dipole   (Debye)                      0.0000       0.0065
 Quad.    (a.u.)                       0.1700       0.0069

 --------------------------------------- 
 Represented molecular multipole moments
 --------------------------------------- 

 Given here are the Molecular multipole moments from the atomic charges, and from the Fit Density.
 Note that the atomic charges represent the latter, NOT the ones from the Exact density.

            Q (a.u.)             Dipole moment (Debye)                                          Quadrupole moment (a.u.)
                                 x         y         z              xx        xy        xz        yy        yz        zz
------------------------------------------------------------------------------------------------------------------------
MDC-m        -0.0000       -1.5882   -1.3537   -0.2649         -1.9408   -2.9262   -0.4017   -0.4422   -0.4670    2.3830
MDC-d         0.0000       -1.7261   -2.0391   -0.4212         -2.0873   -4.3695   -0.7345   -0.0929   -0.2066    2.1803
MDC-q         0.0000       -1.7367   -2.0118   -0.5370         -0.4822   -4.6799   -1.0498    0.3963   -0.1128    0.0859
 
Fit.Dens.    -0.0000       -1.7261   -2.0391   -0.4212         -0.4630   -4.6258   -0.8857    0.4909    0.1405   -0.0280



 =============
 Dipole Moment  ***  (Debye)  ***
 =============
  
 Vector   :        -1.72612844     -2.03915963     -0.42124641
 Magnitude:         2.70465153

 This molecular dipole moment is calculated with analytic integration



 =========================================
 Quadrupole Moment (Buckingham convention)  ***  (a.u.)  ***
 =========================================
  
      quad-xx        quad-xy        quad-xz        quad-yy        quad-yz        quad-zz
     -0.46290540    -4.53102070    -0.90293811     0.49093902     0.50669068    -0.02803362

 This molecular quadrupole moment is calculated with analytic integration
1



 ===========================
 B O N D I N G   E N E R G Y  ***  (decomposition)  ***
 ===========================
  
*** IMPORTANT NOTE ***

The bond energy is computed as an energy difference between molecule and
fragments. In particular when the fragments are single atoms, they are usually
computed as SPHERICALLY SYMMETRIC and SPIN-RESTRICTED. Obviously, this usually
does NOT represent the true atomic groundstate.

To obtain the 'real' bond energy, (atomic) correction terms must be applied
for the true (multiplet) fragment ground state. See ref: E.J.Baerends,
V.Branchadell, M.Sodupe, Chem.Phys.Lett.265 (1997) 481

General theoretical background on the bond energy decomposition scheme used
here (Morokuma-Ziegler) can be found in the review paper:
F.M. Bickelhaupt and E.J. Baerends,
"Kohn-Sham Density Functional Theory: Predicting and Understanding Chemistry"
In: Rev. Comput. Chem.; Lipkowitz, K. B. and Boyd, D. B., Eds.;
Wiley-VCH: New York, 2000, Vol. 15, 1-86.

Symbols used in the Bickelhaupt-Baerends (BB) paper are given below to make
the direct connection to that paper, where detailed explanations can be found
on the meaning of the various terms.


                                                   hartree              eV         kcal/mol           kJ/mol
                                      --------------------     -----------       ----------      -----------

Pauli Repulsion
  Kinetic (Delta T^0):                  16.132375272348373        438.9843         10123.22         42355.55
  Delta V^Pauli Coulomb:                -7.647809693023347       -208.1075         -4799.07        -20079.32
  Delta V^Pauli LDA-XC:                 -1.904717998295475        -51.8300         -1195.23         -5000.84
  Delta V^Pauli GGA-Exchange:            0.150696309324969          4.1007            94.56           395.65
  Delta V^Pauli GGA-Correlation:        -0.137498075147714         -3.7415           -86.28          -361.00
                                      --------------------     -----------       ----------      -----------
  Total Pauli Repulsion:                 6.593045815206807        179.4059          4137.20         17310.04
 (Total Pauli Repulsion =
  Delta E^Pauli in BB paper)

Steric Interaction
  Pauli Repulsion (Delta E^Pauli):       6.593045815206807        179.4059          4137.20         17310.04
  Electrostatic Interaction:            -1.226069829978195        -33.3631          -769.37         -3219.05
 (Electrostatic Interaction =
  Delta V_elstat in the BB paper)
                                      --------------------     -----------       ----------      -----------
[...]
----------------------------------------------
    3       3          1       0.25167077D-01
    3       3          2       0.41185825D-02
    3       3          3       0.14213241D-02
    3       3          4       0.50953848D-03
    3       3          5       0.12491646D-03
    3       3          6       0.25777542D-04
    3       3          7       0.77982646D-05
*** CPKS converged.
----------------------------------------------

====================  end of solving CPKS equations  ====================

==========================
###### NUCLEUS:     4  C  
==========================

====================  solving CPKS equations  ====================

NUCLEUS  COORD.    ITERATION   ACCURACY
-------  ------    ---------   --------
    4       1          1       0.90073894D-01
    4       1          2       0.84771824D-02
    4       1          3       0.32328114D-02
    4       1          4       0.15220085D-02
    4       1          5       0.23835034D-03
    4       1          6       0.63269631D-04
    4       1          7       0.16859575D-04
    4       1          8       0.28891808D-05
*** CPKS converged.
----------------------------------------------
    4       2          1       0.16667845D+00
    4       2          2       0.13847018D-01
    4       2          3       0.31674771D-02
    4       2          4       0.12071407D-02
    4       2          5       0.25662979D-03
    4       2          6       0.26117764D-04
    4       2          7       0.69721323D-05
*** CPKS converged.
----------------------------------------------
    4       3          1       0.36419367D-01
    4       3          2       0.49908240D-02
    4       3          3       0.14145724D-02
    4       3          4       0.54147596D-03
    4       3          5       0.77576251D-04
    4       3          6       0.21776753D-04
    4       3          7       0.47845233D-05
*** CPKS converged.
----------------------------------------------

====================  end of solving CPKS equations  ====================

==========================
###### NUCLEUS:     5  O  
==========================

====================  solving CPKS equations  ====================

NUCLEUS  COORD.    ITERATION   ACCURACY
-------  ------    ---------   --------
    5       1          1       0.24465090D-01
    5       1          2       0.28814805D-02
    5       1          3       0.14992284D-02
    5       1          4       0.52044201D-03
    5       1          5       0.11996733D-03
    5       1          6       0.16273903D-04
    5       1          7       0.38010702D-05
*** CPKS converged.
----------------------------------------------
    5       2          1       0.93795404D-01
    5       2          2       0.73934604D-02
    5       2          3       0.25727883D-02
    5       2          4       0.18207201D-02
    5       2          5       0.22291922D-03
    5       2          6       0.60218489D-04
    5       2          7       0.12589050D-04
    5       2          8       0.21323093D-05
*** CPKS converged.
----------------------------------------------
    5       3          1       0.21439932D-01
    5       3          2       0.45758838D-02
    5       3          3       0.10385796D-02
    5       3          4       0.55593708D-03
    5       3          5       0.87819763D-04
    5       3          6       0.17474649D-04
    5       3          7       0.66014538D-05
*** CPKS converged.
----------------------------------------------

====================  end of solving CPKS equations  ====================


====================================================================
*** DONE CALCULATING ANALYTICAL SECOND DERIVATIVES OF THE ENERGY ***
====================================================================

 Mulliken charges used for AMS results%charges...
Scanning modes in range provided by user.


    =====================
     CALCULATION RESULTS
    =====================

Energy (hartree)            -1.68356191

Gradients (hartree/bohr)
  Index   Atom            d/dx            d/dy            d/dz
      1      H   -0.0000023678   -0.0000206712    0.0000969011
      2      C   -0.0000153785    0.0000156875   -0.0000504291
      3      C    0.0000217419   -0.0000093476   -0.0000392614
      4      C   -0.0000555465   -0.0001116524   -0.0000225415
      5      O    0.0000356789    0.0001622842    0.0000037766
      6      H    0.0000071447   -0.0000330558    0.0001152167
      7      H   -0.0000071872    0.0000007940   -0.0000857349
      8      H    0.0000159145   -0.0000040387   -0.0000179276

 -----------------------
 Normal Mode Frequencies
 -----------------------

 Index   Frequency (cm-1)   Intensity (km/mol)
     7           142.8349               5.6933
     8           273.2216               5.5409
     9           531.4242               7.7867
    10           665.6569               8.3367
    11           904.6512              60.9831
    12           989.1383              12.3258
    13          1001.4197              19.8672
    14          1012.7965               9.7280
    15          1046.8213               3.6150
    16          1284.8151               2.9266
    17          1390.2854               0.5283
    18          1401.7185              39.5904
    19          1615.2962              76.0369
    20          1730.5187             113.1261
    21          2826.4529             160.0654
    22          3100.6065               7.9224
    23          3113.8754               9.8578
    24          3198.8230               2.5980

 Zero-point energy (Hartree):     0.0598

 ------------
 Normal Modes
 ------------

 Number of removed rigid normal modes: 6
 
 Mode:     7      Frequency (cm-1):      142.8349     Intensity (km/mol):        5.6933
 Index  Atom      ---- Displacements (x/y/z) ----
     1     H      -0.014773   0.105953  -0.446331
     2     C       0.002297  -0.019006   0.079323
     3     C      -0.004944   0.035640  -0.149029
     4     C       0.005386  -0.038165   0.162217
     5     O      -0.003239   0.025252  -0.107695
     6     H       0.014174  -0.111773   0.466546
     7     H      -0.002866   0.020403  -0.087065
     8     H       0.022257  -0.158979   0.674538
 
 Mode:     8      Frequency (cm-1):      273.2216     Intensity (km/mol):        5.5409
 Index  Atom      ---- Displacements (x/y/z) ----
     1     H       0.102174   0.122194   0.026467
     2     C      -0.266111  -0.154840  -0.027743
     3     C      -0.048854   0.136874   0.034546
     4     C       0.000897   0.068420   0.015492
     5     O       0.288626  -0.000616  -0.009546
     6     H      -0.668668  -0.124486  -0.007953
     7     H      -0.119690  -0.494747  -0.112841
     8     H      -0.154971  -0.093933  -0.019641
 
 Mode:     9      Frequency (cm-1):      531.4242     Intensity (km/mol):        7.7867
 Index  Atom      ---- Displacements (x/y/z) ----
     1     H      -0.012079   0.087783  -0.370240
     2     C      -0.001007   0.006840  -0.028464
     3     C       0.004740  -0.032725   0.138995
     4     C       0.000723  -0.003619   0.014689
     5     O      -0.001322   0.007627  -0.032568
     6     H       0.013253  -0.104635   0.436860
     7     H      -0.021804   0.163498  -0.685587
     8     H      -0.011458   0.083601  -0.355137
 
 Mode:    10      Frequency (cm-1):      665.6569     Intensity (km/mol):        8.3367
 Index  Atom      ---- Displacements (x/y/z) ----
     1     H      -0.101361   0.231082   0.058861
     2     C      -0.015517   0.061170   0.015066
     3     C       0.123744   0.218187   0.047150
     4     C       0.143700  -0.138181  -0.037668
     5     O      -0.168074  -0.089775  -0.015393
     6     H      -0.645218   0.101356   0.044554
     7     H       0.225750  -0.496059  -0.123616
     8     H       0.188637  -0.092546  -0.027799
 
 Mode:    11      Frequency (cm-1):      904.6512     Intensity (km/mol):       60.9831
 Index  Atom      ---- Displacements (x/y/z) ----
     1     H       0.422154   0.103032   0.010420
     2     C       0.181611  -0.018779  -0.010624
     3     C       0.151364   0.106450   0.020279
     4     C      -0.365053   0.035548   0.020350
     5     O       0.016226  -0.065263  -0.015887
     6     H      -0.051981  -0.011015   0.000403
     7     H       0.331358  -0.338096  -0.091088
     8     H      -0.577115  -0.185300  -0.024866
 
 Mode:    12      Frequency (cm-1):      989.1383     Intensity (km/mol):       12.3258
 Index  Atom      ---- Displacements (x/y/z) ----
     1     H      -0.006201   0.049979  -0.211463
     2     C      -0.005261   0.037713  -0.158160
     3     C       0.001772  -0.013204   0.055846
     4     C       0.001596  -0.010083   0.042708
     5     O      -0.000419   0.002549  -0.010968
     6     H       0.017297  -0.122312   0.509159
     7     H       0.023733  -0.181246   0.761835
     8     H      -0.005650   0.041349  -0.175731
 
 Mode:    13      Frequency (cm-1):     1001.4197     Intensity (km/mol):       19.8672
 Index  Atom      ---- Displacements (x/y/z) ----
     1     H       0.018152  -0.147624   0.621419
     2     C      -0.001113   0.010242  -0.041159
     3     C      -0.000452   0.001511  -0.009226
     4     C      -0.003574   0.024810  -0.105074
     5     O       0.001098  -0.006035   0.026754
     6     H       0.017996  -0.147861   0.619507
     7     H      -0.004686   0.040726  -0.176706
     8     H       0.012306  -0.084809   0.362189
 
 Mode:    14      Frequency (cm-1):     1012.7965     Intensity (km/mol):        9.7280
 Index  Atom      ---- Displacements (x/y/z) ----
     1     H       0.022510  -0.138490   0.586818
     2     C       0.000012  -0.004065   0.015676
     3     C      -0.004050   0.032101  -0.132893
     4     C       0.005979  -0.041221   0.174494
     5     O      -0.001580   0.009192  -0.040121
     6     H       0.008039  -0.042018   0.173356
     7     H      -0.004431   0.023528  -0.088486
     8     H      -0.024144   0.168091  -0.716928
 
 Mode:    15      Frequency (cm-1):     1046.8213     Intensity (km/mol):        3.6150
 Index  Atom      ---- Displacements (x/y/z) ----
     1     H      -0.598611  -0.086078  -0.001371
     2     C       0.101244   0.071392   0.013826
     3     C      -0.070472  -0.124587  -0.027701
     4     C      -0.029637   0.023627   0.008029
     5     O       0.042658   0.042879   0.008319
     6     H      -0.476324   0.102860   0.038530
     7     H       0.330275  -0.461584  -0.119510
     8     H       0.054128   0.116323   0.019919
 
 Mode:    16      Frequency (cm-1):     1284.8151     Intensity (km/mol):        2.9266
 Index  Atom      ---- Displacements (x/y/z) ----
     1     H       0.818259  -0.171290  -0.067922
     2     C      -0.025473   0.115272   0.028315
     3     C      -0.017756  -0.102694  -0.023865
     4     C       0.002534   0.001486   0.000250
     5     O       0.000429  -0.018491  -0.004361
     6     H      -0.462466   0.152558   0.050939
     7     H      -0.004142   0.032004   0.007802
     8     H       0.126101   0.112731   0.022426
 
 Mode:    17      Frequency (cm-1):     1390.2854     Intensity (km/mol):        0.5283
 Index  Atom      ---- Displacements (x/y/z) ----
     1     H       0.023435   0.047504   0.010649
     2     C      -0.017534  -0.002158   0.000057
     3     C      -0.018041   0.042517   0.010659
     4     C      -0.069869   0.009389   0.004488
     5     O       0.018512  -0.070800  -0.017265
     6     H       0.273975  -0.026845  -0.015063
     7     H       0.075999  -0.192963  -0.048694
     8     H       0.588300   0.703600   0.146075
 
 Mode:    18      Frequency (cm-1):     1401.7185     Intensity (km/mol):       39.5904
 Index  Atom      ---- Displacements (x/y/z) ----
     1     H      -0.317673   0.020556   0.015216
     2     C       0.010922  -0.037680  -0.009352
     3     C       0.124665  -0.013334  -0.007273
     4     C      -0.064752   0.006787   0.003802
     5     O       0.011061  -0.022834  -0.005757
     6     H      -0.549451   0.013886   0.020789
     7     H      -0.295162   0.618841   0.157684
     8     H       0.143315   0.235702   0.050361
 
 Mode:    19      Frequency (cm-1):     1615.2962     Intensity (km/mol):       76.0369
 Index  Atom      ---- Displacements (x/y/z) ----
     1     H      -0.317788  -0.147393  -0.025583
     2     C      -0.316083   0.194641   0.056663
     3     C       0.368035  -0.159821  -0.050051
     4     C      -0.110417  -0.146903  -0.030733
     5     O       0.037777   0.113692   0.025451
     6     H       0.523333   0.168555   0.022573
     7     H      -0.070059  -0.447605  -0.104261
     8     H      -0.038907  -0.043384  -0.009447
 
 Mode:    20      Frequency (cm-1):     1730.5187     Intensity (km/mol):      113.1261
 Index  Atom      ---- Displacements (x/y/z) ----
     1     H       0.351018   0.108845   0.014507
     2     C       0.121491  -0.089808  -0.025355
     3     C      -0.145789   0.119743   0.033185
     4     C      -0.148428  -0.548249  -0.124091
     5     O       0.090975   0.365074   0.082851
     6     H      -0.192350  -0.096285  -0.016936
     7     H       0.009825   0.228548   0.054441
     8     H       0.444282   0.136382   0.017378
 
 Mode:    21      Frequency (cm-1):     2826.4529     Intensity (km/mol):      160.0654
 Index  Atom      ---- Displacements (x/y/z) ----
     1     H       0.007022  -0.040105  -0.009717
     2     C       0.000172   0.000132   0.000025
     3     C      -0.001084   0.002334   0.000586
     4     C       0.063055  -0.051318  -0.014177
     5     O      -0.001134  -0.002308  -0.000506
     6     H      -0.002178   0.006187   0.001550
     7     H       0.002508  -0.001803  -0.000502
     8     H      -0.729282   0.654023   0.178241
 
 Mode:    22      Frequency (cm-1):     3100.6065     Intensity (km/mol):        7.9224
 Index  Atom      ---- Displacements (x/y/z) ----
     1     H       0.037773   0.440478   0.102952
     2     C       0.048014  -0.030399  -0.008829
     3     C      -0.007135  -0.034541  -0.007941
     4     C       0.001427  -0.001874  -0.000486
     5     O      -0.000126   0.000628   0.000154
     6     H       0.057220   0.594843   0.140738
     7     H      -0.585980  -0.258797  -0.043148
     8     H      -0.010746   0.009063   0.002482
 
 Mode:    23      Frequency (cm-1):     3113.8754     Intensity (km/mol):        9.8578
 Index  Atom      ---- Displacements (x/y/z) ----
     1     H       0.071933   0.850444   0.198940
     2     C      -0.023168   0.027993   0.007453
     3     C      -0.001150  -0.075965  -0.017950
     4     C       0.004622  -0.000888  -0.000363
     5     O      -0.000132  -0.000179  -0.000039
     6     H      -0.036050  -0.386864  -0.091511
     7     H       0.230798   0.101446   0.016867
     8     H      -0.030064   0.019591   0.005639
 
 Mode:    24      Frequency (cm-1):     3198.8230     Intensity (km/mol):        2.5980
 Index  Atom      ---- Displacements (x/y/z) ----
     1     H       0.006796   0.099742   0.023339
     2     C      -0.060075  -0.077288  -0.016586
     3     C      -0.000376  -0.009806  -0.002313
     4     C       0.000327  -0.000168  -0.000050
     5     O       0.000018   0.000291   0.000070
     6     H       0.045109   0.658557   0.156370
     7     H       0.663576   0.277390   0.045131
     8     H       0.000124  -0.001292  -0.000319

PES point character: Geometry corresponds to a local minimum on the PES.




 ============================
 Statistical Thermal Analysis  ***  ideal gas assumed  ***
 ============================
  
 Pressure:                  1.000000 atm.
 Temperature:             298.150000 K



 Moments of Inertia [amu*bohr^2] and principal axis
 ==================================================

          77.5137        298.8066        376.3201
 ------------------------------------------------
           0.9461         -0.3221          0.0327
           0.3207          0.9189         -0.2296
           0.0439          0.2278          0.9727


 The rotational contribution to the molecular entropy includes
 a term, dependent on the symmetry number sigma. The results 
 reported below were computed using sigma = 1, determined from
 the point group symmetry of the input geometry (NOSYM). 
 If this is not the correct symmetry, try symmetrizing the molecule before
 running the calculation (note: linear molecules should be aligned along one
 of the Cartesian axes).
 Contributions from frequencies below 20 1/cm are not included in vibrational sums.
 Their contributions, if any, are reported separately.


     Temp                                                        Transl      Rotat     Vibrat     Total
     ----                                                        ------      -----     ------     -----

     298.15   Entropy (cal/mol-K):                               37.991     23.681      5.846     67.519
              Nuclear Internal Energy (kcal/mol):                 0.889      0.889     38.543     40.321
              Constant Volume Heat Capacity (cal/mol-K):          2.981      2.981      8.114     14.076
          (c) Constant Volume Heat Capacity (cal/mol-K):          2.981      2.981      7.924     13.886

       Summary of energy terms
                                                   hartree              eV         kcal/mol           kJ/mol
                                      --------------------     -----------       ----------      -----------
      Energy from Engine:               -1.683561906703497        -45.8121         -1056.45         -4420.19
      Nuclear Internal Energy:           0.064255263357885          1.7485            40.32           168.70
  (c) Nuclear Internal Energy:           0.064142880964122          1.7454            40.25           168.41
      Internal Energy U:                -1.619306643345612        -44.0636         -1016.13         -4251.49
      pV/n = RT:                         0.000944186013486          0.0257             0.59             2.48
      Enthalpy H:                       -1.618362457332126        -44.0379         -1015.54         -4249.01
      -T*S:                             -0.032080299816304         -0.8729           -20.13           -84.23
  (c) -T*S:                             -0.032058904882745         -0.8724           -20.12           -84.17
      Gibbs free energy:                -1.650442757148430        -44.9108         -1035.67         -4333.24
 
 
 
  (c) The properties marked with this symbol have been corrected using 'low vibrational frequency free rotor
      interpolation corrections'. For those terms all positive frequencies are used (also ones below 20 1/cm),
      but the contribution to the partition function of small vibrational frequencies is modified as described
      in the following paper:
      S. Grimme, 'Supramolecular Binding Thermodynamics by Dispersion-Corrected Density Functional Theory'
      (Chem. Eur. J. 2012, 18, 9955-9964)
      Configuration: Dampener Frequency          :   100.000 1/cm
                     Dampener Alpha              :     4.000
                     Averaging Moment of Inertia : 1.000E-44 kg m2

--------------
Atomic charges
--------------
  Index   Atom    Charge
      1      H   -0.2018
      2      C    0.5048
      3      C    0.1671
      4      C    0.6560
      5      O   -0.4814
      6      H   -0.1734
      7      H   -0.2139
      8      H   -0.2573


Dipole moment vector    (Debye):    -1.72612844   -2.03915963   -0.42124641
              magnitude (Debye):     2.70465153


Final PES point is a local minimum. Geometry optimization successful!


AMS application finished. Exiting.
NORMAL TERMINATION
     Total cpu time:    1263.90
  Total system time:      11.82
 Total elapsed time:    2562.90
 WARNING: total elapsed time is much higher than the (CPU+system) time. 
 Make sure the machine is not oversubscribed and has enough memory, SCM_TMPDIR p
 oints to a fast file system, and the network is fast enough.
