
 *******************************************************************************
 *                                                                             *
 *  --------------------------------                                           *
 *   Amsterdam Modeling Suite (AMS)              2021.102                      *
 *  --------------------------------                                           *
 *                                               r95042 2021-06-07             *
 *                                                                             *
 *                                                                             *
 *                              =================                              *
 *                              |               |                              *
 *                              |     A M S     |                              *
 *                              |               |                              *
 *                              =================                              *
 *                                                                             *
 *                                                                             *
 *   Online information and documentation:  https://www.scm.com/support/       *
 *   E-mail:  support@scm.com   info@scm.com                                   *
 *                                                                             *
 *   Scientific publications using AMS results must be properly referenced     *
 *   See the User Manuals (or the web site) for recommended citations          *
 *   The terms and conditions of the End User License Agreement apply to       *
 *   the use of AMS, https://www.scm.com/license-terms/                        *
 *                                                                             *
 **********************  x86_64_linux_intel / intelmpi  ************************
 
 Licensed to: VU/FEW (+ SARA) / ALGEMEEN / Amsterdam / THE NETHERLANDS
 SCM User ID: u7668
  
 AMS 2021.102  RunTime: Jan20-2022 02:55:17  ShM Nodes: 1  Procs: 1

 AMS jobname: 8.no_catalyst_H_F.P1
 AMS jobid  : 684920175

 Start   directory: /scistor/tc/yhk800/MasterProject/calculations/no_catalyst_H_F/8.no_catalyst_H_F.P1/
 Results directory: /scistor/tc/yhk800/MasterProject/calculations/no_catalyst_H_F/8.no_catalyst_H_F.P1/
 Scratch directory: /scratch/3467/amstmp_8.no_catalyst_H_F.P1_kid0.684920175/

 RNG seed: 1753437318 -1574843179 189089230 -2129320806 643385518 -2107841859 1509807791 -904382204



                      ************************************************************************
                      *  ADF 2021.102  RunTime: Jan20-2022 02:55:17  ShM Nodes: 1  Procs: 1  *
                      ************************************************************************
  
       ***************************
       *  GEOMETRY OPTIMIZATION  *
       ***************************

Optimization Method                    Quasi Newton
Optimization Coordinates               Delocalized Coordinates
Optimize lattice                       F
 
 ------------------------------------------------------
 Convergence criteria (Hartree,Angstrom)
 ------------------------------------------------------
 Maximum gradient               0.001000000000
 Maximum rms gradient           0.000666666667
 Maximum step allowed           0.010000000000
 Maximum rms step allowed       0.006666666667
 Maximum energy change allowe   0.000120000000
 Maximum stress energy allowe   0.000500000000
 
Initial model Hessian                  Automatic Hessian
 
------------------------------------
Quasi-Newton Optimizer Parameters
------------------------------------
Hessian Update Method                  BFGS
Maximum number of steps                  250
First GDIIS cycle                          0
Maximum GDIIS vectors                      0
Trust radius (bohr)                        0.200000
Trust radius varies                        T
Constraints converged at all steps         T
Use projector                              T
 
 Rigid motions settings for: old optimizer
 Atomic rotations (x,y,z):     T T T
 Atomic translations (x,y,z):  T T T
 Tolerance:                   1.000000000000000E-006
 
--------
Geometry
--------
Formula: C4H6FO
Atoms
  Index Symbol   x (angstrom)   y (angstrom)   z (angstrom)
      1      C     0.07237900     0.45849000     0.14701600
      2      C     0.88136400    -0.76962700     0.34543400
      3      H     0.32008500    -1.64937000     0.00848400
      4      C    -1.24453700     0.48140500    -0.41210600
      5      H     0.49150900     1.42171500     0.44020400
      6      O    -1.90880100     1.51397000    -0.58363800
      7      C     1.35798400    -0.97156700     1.79839200
      8      H     1.97578900    -1.87216200     1.87186400
      9      H     0.50807500    -1.08370100     2.47848500
     10      H     1.95613700    -0.12156000     2.14194000
     11      F     2.02430961    -0.68835013    -0.47625293
     12      H    -1.65069784    -0.46912828    -0.68854743
 
Total System Charge             0.00000
 
 
----------------
ADF Engine Input
----------------
 
 NumericalQuality VeryGood
 SCF
 Converge 1.0e-6
 Iterations 99
 End
 SYMMETRY NOSYM
 SpinPolarization 1.0
 Unrestricted Yes
 XC
 GGA OLYP
 End
 basis
 core None
 type TZ2P
 End
 

 Title: *** (NO TITLE) ***

 Using automatic Hessian for delocalized coordinates.
 *** GOStep1 ***

 Energy gradients wrt nuclear displacements
 ==========================================

     Atom      Cartesian (a.u./angstrom)
                 X         Y         Z
 ----------------------------------------
     1 C     0.000899 -0.015325 -0.003921
     2 C    -0.002150  0.007408 -0.022313
     3 H    -0.000330  0.002561  0.000575
     4 C    -0.015179 -0.035897 -0.010746
     5 H    -0.003418  0.001920  0.001640
     6 O    -0.002483 -0.001315 -0.001931
     7 C     0.003238 -0.002498  0.006388
     8 H     0.001759  0.000771  0.003341
     9 H     0.002119  0.000558  0.001625
    10 H     0.001440 -0.001352  0.003459
    11 F    -0.006472 -0.001734  0.007330
    12 H     0.020577  0.044904  0.014550
 ----------------------------------------
 Mulliken charges used for AMS results%charges...
 
----------------------------------------------------------------------
Geometry Convergence after Step   1       (Hartree/Angstrom,Angstrom)
----------------------------------------------------------------------
current energy                               -2.38682396 Hartree
energy change                      -2.38682396     0.00012000    F
constrained gradient max            0.04489841     0.00100000    F
constrained gradient rms            0.01216256     0.00066667    F
gradient max                        0.04489841
gradient rms                        0.01216256
cart. step max                      0.03210764     0.01000000    F
cart. step rms                      0.01303997     0.00666667    F
 
 
--------
Geometry
--------
Formula: C4H6FO
Atoms
  Index Symbol   x (angstrom)   y (angstrom)   z (angstrom)
      1      C     0.08236699     0.46517884     0.15181467
      2      C     0.88867849    -0.76817584     0.34844007
      3      H     0.33024732    -1.65008219     0.00863482
      4      C    -1.24170837     0.47678882    -0.39500789
      5      H     0.52261994     1.42842735     0.41018837
      6      O    -1.90457028     1.51235348    -0.55153036
      7      C     1.34684459    -0.96889696     1.79744161
      8      H     1.96213337    -1.87118292     1.86628842
      9      H     0.48522296    -1.08458670     2.46265962
     10      H     1.93739606    -0.11333408     2.13886697
     11      F     2.03351529    -0.68040812    -0.47870355
     12      H    -1.65915059    -0.49596709    -0.68781810
 
Total System Charge             0.00000
 
 *** GOStep2 ***

 Energy gradients wrt nuclear displacements
 ==========================================

     Atom      Cartesian (a.u./angstrom)
                 X         Y         Z
 ----------------------------------------
     1 C     0.001843 -0.003789  0.001469
     2 C     0.000990  0.003055 -0.012349
     3 H    -0.000483  0.000236  0.001284
     4 C    -0.004816 -0.016562 -0.003528
     5 H    -0.001027  0.001531  0.000447
     6 O    -0.000508  0.002379 -0.000600
     7 C    -0.000343 -0.001235  0.005242
     8 H     0.000494  0.000204  0.000366
     9 H     0.000598  0.000255  0.001097
    10 H     0.000558  0.000038  0.000615
    11 F    -0.003445 -0.000274  0.002078
    12 H     0.006139  0.014159  0.003879
 ----------------------------------------
 Mulliken charges used for AMS results%charges...

 dE(predicted):    -0.10688E-02, dE(actual):    -0.13638E-02, Trust radius:    0.200000, all in a.u.
 
----------------------------------------------------------------------
Geometry Convergence after Step   2       (Hartree/Angstrom,Angstrom)
----------------------------------------------------------------------
current energy                               -2.38818778 Hartree
energy change                      -0.00136383     0.00012000    F
constrained gradient max            0.01657108     0.00100000    F
constrained gradient rms            0.00473112     0.00066667    F
gradient max                        0.01657108
gradient rms                        0.00473112
cart. step max                      0.04631815     0.01000000    F
cart. step rms                      0.01708837     0.00666667    F
 
 
--------
Geometry
--------
Formula: C4H6FO
Atoms
  Index Symbol   x (angstrom)   y (angstrom)   z (angstrom)
      1      C     0.09668477     0.47115693     0.13310057
      2      C     0.89912681    -0.76518215     0.34537983
      3      H     0.34903043    -1.64734360    -0.00831258
      4      C    -1.23736887     0.47871495    -0.39072765
      5      H     0.54925157     1.43271492     0.37213961
      6      O    -1.91286060     1.50793898    -0.52044176
      7      C     1.33444160    -0.96827679     1.79399090
      8      H     1.94859637    -1.87079868     1.86763698
      9      H     0.45840639    -1.08961339     2.43890206
     10      H     1.91485549    -0.11071769     2.14614912
     11      F     2.05995571    -0.67547638    -0.46504249
     12      H    -1.67652390    -0.51300251    -0.64149995
 
Total System Charge             0.00000
 
 *** GOStep3 ***

 Energy gradients wrt nuclear displacements
 ==========================================

     Atom      Cartesian (a.u./angstrom)
                 X         Y         Z
 ----------------------------------------
     1 C    -0.000058  0.000322  0.003827
     2 C     0.000824  0.000943 -0.003857
     3 H    -0.000112 -0.000466  0.000863
     4 C     0.003178 -0.001163 -0.008400
     5 H    -0.000613  0.000261  0.000390
     6 O    -0.000924  0.000592  0.002611
     7 C     0.000266 -0.000404  0.002122
     8 H     0.000024 -0.000145 -0.000382
     9 H    -0.000091  0.000106 -0.000301
    10 H     0.000147  0.000307 -0.000420
    11 F    -0.001128 -0.000432  0.000853
    12 H    -0.001512  0.000078  0.002694
 ----------------------------------------
 Mulliken charges used for AMS results%charges...

 dE(predicted):    -0.22391E-03, dE(actual):    -0.17937E-03, Trust radius:    0.200000, all in a.u.
 
----------------------------------------------------------------------
Geometry Convergence after Step   3       (Hartree/Angstrom,Angstrom)
----------------------------------------------------------------------
current energy                               -2.38836715 Hartree
energy change                      -0.00017937     0.00012000    F
constrained gradient max            0.00841117     0.00100000    F
constrained gradient rms            0.00197084     0.00066667    F
gradient max                        0.00841117
gradient rms                        0.00197084
cart. step max                      0.04719297     0.01000000    F
cart. step rms                      0.01374900     0.00666667    F
 
 
--------
Geometry
--------
Formula: C4H6FO
Atoms
  Index Symbol   x (angstrom)   y (angstrom)   z (angstrom)
      1      C     0.10304904     0.47574462     0.12472734
      2      C     0.90396761    -0.76284949     0.34844937
      3      H     0.36099482    -1.64476255    -0.01757646
      4      C    -1.25197743     0.47916679    -0.34353468
      5      H     0.57408305     1.43506693     0.33041614
      6      O    -1.91343457     1.50831784    -0.51915985
      7      C     1.32805660    -0.96912439     1.79209653
      8      H     1.94377966    -1.87036258     1.86579143
      9      H     0.44322538    -1.09959518     2.42293068
     10      H     1.89840429    -0.10931908     2.15333116
     11      F     2.07482564    -0.66855847    -0.45435509
     12      H    -1.68137833    -0.52360987    -0.63184193
 
Total System Charge             0.00000
 
 *** GOStep4 ***

 Energy gradients wrt nuclear displacements
 ==========================================

     Atom      Cartesian (a.u./angstrom)
                 X         Y         Z
 ----------------------------------------
     1 C     0.001236  0.005139 -0.005407
     2 C    -0.000138 -0.002220  0.008286
     3 H     0.000224 -0.000770 -0.000005
     4 C    -0.000375  0.011476  0.016700
     5 H    -0.000164 -0.001237  0.000523
     6 O     0.002427 -0.000860 -0.004358
     7 C     0.001346  0.000314 -0.002386
     8 H    -0.000455 -0.000360 -0.000742
     9 H    -0.000668 -0.000042 -0.001704
    10 H    -0.000310  0.000355 -0.001248
    11 F     0.001282  0.000028 -0.000769
    12 H    -0.004404 -0.011822 -0.008891
 ----------------------------------------
 Mulliken charges used for AMS results%charges...

 dE(predicted):    -0.25721E-03, dE(actual):     0.23008E-03, Trust radius:    0.050000, all in a.u.
 
----------------------------------------------------------------------
Geometry Convergence after Step   4       (Hartree/Angstrom,Angstrom)
----------------------------------------------------------------------
current energy                               -2.38813707 Hartree
energy change                       0.00023008     0.00012000    F
constrained gradient max            0.01669181     0.00100000    F
constrained gradient rms            0.00478325     0.00066667    F
gradient max                        0.01669181
gradient rms                        0.00478325
cart. step max                      0.01239003     0.01000000    F
cart. step rms                      0.00403207     0.00666667    T
 
 
--------
Geometry
--------
Formula: C4H6FO
Atoms
  Index Symbol   x (angstrom)   y (angstrom)   z (angstrom)
      1      C     0.10551031     0.47391098     0.11997967
      2      C     0.90576364    -0.76302596     0.34280060
      3      H     0.36280365    -1.64427221    -0.02401662
      4      C    -1.24737718     0.47746033    -0.35282870
      5      H     0.57357399     1.43510345     0.32719926
      6      O    -1.91648939     1.50584043    -0.50998343
      7      C     1.32494909    -0.96887102     1.79237172
      8      H     1.94160119    -1.86918953     1.87014554
      9      H     0.44076767    -1.09897184     2.42451233
     10      H     1.89499120    -0.10993608     2.15692760
     11      F     2.07703554    -0.66853664    -0.45638143
     12      H    -1.67953394    -0.51939733    -0.61945190
 
Total System Charge             0.00000
 
 *** GOStep5 ***

 Energy gradients wrt nuclear displacements
 ==========================================

     Atom      Cartesian (a.u./angstrom)
                 X         Y         Z
 ----------------------------------------
     1 C     0.001068  0.001783 -0.002694
     2 C    -0.000408 -0.001211  0.003276
     3 H     0.000167 -0.000260 -0.000098
     4 C    -0.000410  0.004072  0.007538
     5 H    -0.000266 -0.000305  0.000471
     6 O     0.000837 -0.000148 -0.002172
     7 C     0.000901  0.000284 -0.000546
     8 H    -0.000327 -0.000156 -0.000272
     9 H    -0.000253 -0.000057 -0.000565
    10 H    -0.000108  0.000158 -0.000417
    11 F     0.000263  0.000083 -0.000681
    12 H    -0.001463 -0.004242 -0.003841
 ----------------------------------------
 Mulliken charges used for AMS results%charges...

 dE(predicted):    -0.28002E-03, dE(actual):    -0.30319E-03, Trust radius:    0.100000, all in a.u.
 
----------------------------------------------------------------------
Geometry Convergence after Step   5       (Hartree/Angstrom,Angstrom)
----------------------------------------------------------------------
current energy                               -2.38844026 Hartree
energy change                      -0.00030319     0.00012000    F
constrained gradient max            0.00752876     0.00100000    F
constrained gradient rms            0.00197808     0.00066667    F
gradient max                        0.00752876
gradient rms                        0.00197808
cart. step max                      0.03933472     0.01000000    F
cart. step rms                      0.01110253     0.00666667    F
 
 
--------
Geometry
--------
Formula: C4H6FO
Atoms
  Index Symbol   x (angstrom)   y (angstrom)   z (angstrom)
      1      C     0.11270849     0.47431755     0.10842792
      2      C     0.91281801    -0.76077027     0.33477784
      3      H     0.37402513    -1.64166665    -0.03857953
      4      C    -1.24394346     0.47541057    -0.35223152
      5      H     0.58440271     1.43711865     0.30096651
      6      O    -1.91892855     1.50246954    -0.49501015
      7      C     1.31551290    -0.96960125     1.79037987
      8      H     1.93507116    -1.86752363     1.87372490
      9      H     0.42593151    -1.10413558     2.41412117
     10      H     1.87897763    -0.11049876     2.16486674
     11      F     2.09264480    -0.66374103    -0.45005192
     12      H    -1.68562457    -0.52126454    -0.58011718
 
Total System Charge             0.00000
 
 *** GOStep6 ***

 Energy gradients wrt nuclear displacements
 ==========================================

     Atom      Cartesian (a.u./angstrom)
                 X         Y         Z
 ----------------------------------------
     1 C     0.000059  0.000095  0.000217
     2 C    -0.000764 -0.000579  0.001050
     3 H     0.000057  0.000058  0.000068
     4 C     0.000081  0.000509 -0.000855
     5 H    -0.000173  0.000091  0.000334
     6 O     0.000114 -0.000234  0.000211
     7 C     0.000423  0.000316 -0.000416
     8 H    -0.000164 -0.000047  0.000016
     9 H    -0.000070 -0.000049  0.000013
    10 H    -0.000034 -0.000021 -0.000047
    11 F     0.000532  0.000035 -0.000729
    12 H    -0.000062 -0.000173  0.000137
 ----------------------------------------
 Mulliken charges used for AMS results%charges...

 dE(predicted):    -0.87106E-04, dE(actual):    -0.95542E-04, Trust radius:    0.100000, all in a.u.
 
----------------------------------------------------------------------
Geometry Convergence after Step   6       (Hartree/Angstrom,Angstrom)
----------------------------------------------------------------------
current energy                               -2.38853580 Hartree
energy change                      -0.00009554     0.00012000    T
constrained gradient max            0.00105322     0.00100000    F
constrained gradient rms            0.00036170     0.00066667    T
gradient max                        0.00105322
gradient rms                        0.00036170
cart. step max                      0.02391458     0.01000000    F
cart. step rms                      0.00772413     0.00666667    F
 
 
--------
Geometry
--------
Formula: C4H6FO
Atoms
  Index Symbol   x (angstrom)   y (angstrom)   z (angstrom)
      1      C     0.11777102     0.47499613     0.10050866
      2      C     0.91788485    -0.75916144     0.33044406
      3      H     0.38253569    -1.64005748    -0.04797797
      4      C    -1.24400757     0.47426784    -0.34450296
      5      H     0.59345577     1.43835683     0.27996457
      6      O    -1.91984219     1.50102219    -0.48670896
      7      C     1.30917328    -0.97020815     1.78908454
      8      H     1.93090982    -1.86638120     1.87541749
      9      H     0.41525631    -1.10861340     2.40571895
     10      H     1.86729946    -0.11057847     2.17033735
     11      F     2.10339419    -0.65990021    -0.44480850
     12      H    -1.69023487    -0.52362806    -0.55620260
 
Total System Charge             0.00000
 
 *** GOStep7 ***

 Energy gradients wrt nuclear displacements
 ==========================================

     Atom      Cartesian (a.u./angstrom)
                 X         Y         Z
 ----------------------------------------
     1 C     0.000026 -0.000093  0.000466
     2 C    -0.000746 -0.000532  0.001108
     3 H     0.000023  0.000122  0.000066
     4 C     0.000164  0.000158 -0.001557
     5 H    -0.000111  0.000081  0.000300
     6 O    -0.000077 -0.000061  0.000380
     7 C     0.000170  0.000298 -0.000672
     8 H    -0.000098 -0.000010  0.000075
     9 H    -0.000037 -0.000039  0.000126
    10 H    -0.000013 -0.000070  0.000025
    11 F     0.000661  0.000084 -0.000809
    12 H     0.000038  0.000061  0.000492
 ----------------------------------------
 Mulliken charges used for AMS results%charges...

 dE(predicted):    -0.95475E-05, dE(actual):    -0.17112E-04, Trust radius:    0.100000, all in a.u.
 
----------------------------------------------------------------------
Geometry Convergence after Step   7       (Hartree/Angstrom,Angstrom)
----------------------------------------------------------------------
current energy                               -2.38855291 Hartree
energy change                      -0.00001711     0.00012000    T
constrained gradient max            0.00156338     0.00100000    F
constrained gradient rms            0.00044117     0.00066667    T
gradient max                        0.00156338
gradient rms                        0.00044117
cart. step max                      0.04070029     0.01000000    F
cart. step rms                      0.01386206     0.00666667    F
 
 
--------
Geometry
--------
Formula: C4H6FO
Atoms
  Index Symbol   x (angstrom)   y (angstrom)   z (angstrom)
      1      C     0.12660530     0.47591669     0.08605156
      2      C     0.92709880    -0.75632777     0.32247884
      3      H     0.39826228    -1.63771852    -0.06438086
      4      C    -1.24466509     0.47217401    -0.32795318
      5      H     0.60912330     1.44004572     0.24123581
      6      O    -1.92108613     1.49864236    -0.47092190
      7      C     1.29784007    -0.97109733     1.78670978
      8      H     1.92350979    -1.86409577     1.87834001
      9      H     0.39601242    -1.11640542     2.38991422
     10      H     1.84602392    -0.11026651     2.17965814
     11      F     2.12263306    -0.65362130    -0.43435546
     12      H    -1.69776195    -0.52713157    -0.51550231
 
Total System Charge             0.00000
 
 *** GOStep8 ***

 Energy gradients wrt nuclear displacements
 ==========================================

     Atom      Cartesian (a.u./angstrom)
                 X         Y         Z
 ----------------------------------------
     1 C     0.000012 -0.000223  0.000322
     2 C    -0.000588 -0.000221  0.000809
     3 H    -0.000012  0.000131  0.000079
     4 C    -0.000034 -0.000301 -0.001168
     5 H    -0.000015  0.000020  0.000254
     6 O    -0.000118  0.000071  0.000230
     7 C    -0.000092  0.000182 -0.000894
     8 H     0.000041  0.000013  0.000145
     9 H     0.000017  0.000002  0.000177
    10 H     0.000044 -0.000093  0.000135
    11 F     0.000537  0.000057 -0.000543
    12 H     0.000208  0.000361  0.000454
 ----------------------------------------
 Mulliken charges used for AMS results%charges...

 dE(predicted):    -0.25924E-04, dE(actual):    -0.27957E-04, Trust radius:    0.200000, all in a.u.
 
----------------------------------------------------------------------
Geometry Convergence after Step   8       (Hartree/Angstrom,Angstrom)
----------------------------------------------------------------------
current energy                               -2.38858087 Hartree
energy change                      -0.00002796     0.00012000    T
constrained gradient max            0.00117452     0.00100000    F
constrained gradient rms            0.00036170     0.00066667    T
gradient max                        0.00117452
gradient rms                        0.00036170
cart. step max                      0.07913114     0.01000000    F
cart. step rms                      0.02763148     0.00666667    F
 
 
--------
Geometry
--------
Formula: C4H6FO
Atoms
  Index Symbol   x (angstrom)   y (angstrom)   z (angstrom)
      1      C     0.14371109     0.47684288     0.05697366
      2      C     0.94549570    -0.75134364     0.30716881
      3      H     0.43076863    -1.63431528    -0.09598423
      4      C    -1.24443959     0.46859156    -0.29424863
      5      H     0.63804810     1.44155129     0.16278356
      6      O    -1.92270650     1.49425297    -0.43540427
      7      C     1.27501516    -0.97232808     1.78187355
      8      H     1.90781639    -1.85916976     1.88445128
      9      H     0.35750185    -1.13125130     2.35693947
     10      H     1.80225447    -0.10840785     2.19623343
     11      F     2.15975549    -0.64127709    -0.41314082
     12      H    -1.70962502    -0.53303112    -0.43637118
 
Total System Charge             0.00000
 
 *** GOStep9 ***

 Energy gradients wrt nuclear displacements
 ==========================================

     Atom      Cartesian (a.u./angstrom)
                 X         Y         Z
 ----------------------------------------
     1 C    -0.000101 -0.000225  0.000031
     2 C    -0.000138  0.000040  0.000365
     3 H    -0.000015  0.000081  0.000041
     4 C    -0.000046 -0.000094 -0.000178
     5 H     0.000143 -0.000092  0.000070
     6 O    -0.000037  0.000011  0.000045
     7 C    -0.000376  0.000079 -0.000777
     8 H     0.000148  0.000008  0.000079
     9 H     0.000047  0.000024  0.000130
    10 H     0.000081 -0.000027  0.000170
    11 F     0.000180  0.000038 -0.000086
    12 H     0.000113  0.000158  0.000110
 ----------------------------------------
 Mulliken charges used for AMS results%charges...

 dE(predicted):    -0.25414E-04, dE(actual):    -0.26020E-04, Trust radius:    0.400000, all in a.u.
 
---------------------------------------------------------
Geometry Convergence after Step   9       ** CONVERGED **
---------------------------------------------------------
current energy                               -2.38860689 Hartree
energy change                      -0.00002602     0.00012000    T
constrained gradient max            0.00077305     0.00100000    T
constrained gradient rms            0.00018484     0.00066667    T
gradient max                        0.00077305
gradient rms                        0.00018484
cart. step max                      0.00466987     0.01000000    T
cart. step rms                      0.00151258     0.00666667    T
 
Geometry optimization converged

Optimized geometry:
 
--------
Geometry
--------
Formula: C4H6FO
Atoms
  Index Symbol   x (angstrom)   y (angstrom)   z (angstrom)
      1      C     0.14371109     0.47684288     0.05697366
      2      C     0.94549570    -0.75134364     0.30716881
      3      H     0.43076863    -1.63431528    -0.09598423
      4      C    -1.24443959     0.46859156    -0.29424863
      5      H     0.63804810     1.44155129     0.16278356
      6      O    -1.92270650     1.49425297    -0.43540427
      7      C     1.27501516    -0.97232808     1.78187355
      8      H     1.90781639    -1.85916976     1.88445128
      9      H     0.35750185    -1.13125130     2.35693947
     10      H     1.80225447    -0.10840785     2.19623343
     11      F     2.15975549    -0.64127709    -0.41314082
     12      H    -1.70962502    -0.53303112    -0.43637118
 
Total System Charge             0.00000
 
Performing a single point calculation on the final geometry ...

 *** adf ***



 ===========================
 A T T A C H E D   F I L E S
 ===========================
  
 Restart/scratch/3467/amstmp_8.no_catalyst_H_F.P1_kid0.684920175/GOStep9.rkf
 *** GOStep9 ***



 ===============================
 M O D E L   P A R A M E T E R S
 ===============================
  
 DENSITY FUNCTIONAL POTENTIAL (scf)
    LDA:                               Exchange only                           == Not Default ==
    Gradient Corrections:              OPTX LYP                                == Not Default ==

 SPIN  (restricted / unrestr.)
    Molecule:                          UNrestricted                            == Not Default ==
    Fragments:                         Restricted                               

 OTHER ASPECTS
    Relativistic Corrections:          scalar (ZORA,MAPA)                       

    Nuclear Charge Density Model:      Point Charge Nuclei                      
    Core Treatment:                    Frozen Orbital(s)                        

    Hyperfine or Zeeman Interaction:   ---                                      



 ===============
 G E O M E T R Y  ***  3D  Molecule  ***
 ===============
  

 ATOMS
 =====                            X Y Z                    CHARGE
                                (Angstrom)             Nucl     +Core       At.Mass
                       --------------------------    ----------------       -------
    1  C               0.1437    0.4768    0.0570      6.00      6.00       12.0000
    2  C               0.9455   -0.7513    0.3072      6.00      6.00       12.0000
    3  H               0.4308   -1.6343   -0.0960      1.00      1.00        1.0078
    4  C              -1.2444    0.4686   -0.2942      6.00      6.00       12.0000
    5  H               0.6380    1.4416    0.1628      1.00      1.00        1.0078
    6  O              -1.9227    1.4943   -0.4354      8.00      8.00       15.9949
    7  C               1.2750   -0.9723    1.7819      6.00      6.00       12.0000
    8  H               1.9078   -1.8592    1.8845      1.00      1.00        1.0078
    9  H               0.3575   -1.1313    2.3569      1.00      1.00        1.0078
   10  H               1.8023   -0.1084    2.1962      1.00      1.00        1.0078
   11  F               2.1598   -0.6413   -0.4131      9.00      9.00       18.9984
   12  H              -1.7096   -0.5330   -0.4364      1.00      1.00        1.0078


 FRAGMENTS
 =========                                     Atoms in this Fragment     Cart. coord.s (Angstrom)
                                               -------------------------------------------------------
    1  C                                                 1  C            0.1437    0.4768    0.0570
    2  C                                                 2  C            0.9455   -0.7513    0.3072
    3  C                                                 4  C           -1.2444    0.4686   -0.2942
    4  C                                                 7  C            1.2750   -0.9723    1.7819
    5  H                                                 3  H            0.4308   -1.6343   -0.0960
    6  H                                                 5  H            0.6380    1.4416    0.1628
    7  H                                                 8  H            1.9078   -1.8592    1.8845
    8  H                                                 9  H            0.3575   -1.1313    2.3569
    9  H                                                10  H            1.8023   -0.1084    2.1962
   10  H                                                12  H           -1.7096   -0.5330   -0.4364
   11  O                                                 6  O           -1.9227    1.4943   -0.4354
   12  F                                                11  F            2.1598   -0.6413   -0.4131


 Interatomic Distance Matrix (Angstrom)
 --------------------------------------

   1)     0.000
   2)     1.488   0.000
   3)     2.136   1.099   0.000
   4)     1.432   2.578   2.696   0.000
   5)     1.089   2.219   3.094   2.168   0.000
   6)     2.355   3.718   3.930   1.238   2.630   0.000
   7)     2.521   1.527   2.163   3.568   2.976   4.607   0.000
   8)     3.451   2.154   2.481   4.484   3.933   5.595   1.094   0.000
   9)     2.815   2.166   2.505   3.486   3.393   4.460   1.094   1.777   0.000
  10)     2.769   2.172   3.076   3.977   2.809   4.834   1.094   1.781   1.777   0.000
  11)     2.353   1.416   2.019   3.583   2.643   4.607   2.390   2.613   3.341   2.687
          0.000
  12)     2.168   2.766   2.431   1.113   3.126   2.038   3.745   4.498   3.526   4.410
          3.871   0.000

 Min. Distance =    1.0891
 Max. Distance =    5.5946



 =====================================
 S Y M M E T R Y ,   E L E C T R O N S
 =====================================
  
 Symmetry: NOSYM

 Irreducible Representations, including subspecies
 -------------------------------------------------
 A


 Configuration of Valence Electrons
 ==================================
 ( determined in the SCF procedure )

 Total:   24 (Spin-A)  + 23 (Spin-B)

 Net Charge: 0 (Nuclei minus Electrons)
 Spin polar: 1 (Spin_A minus Spin_B electrons)

 Aufbau principle for MO occupations will be applied through SCF cycle no.      49
 Thereafter, the program will assign electrons to MOs that are spatially
 similar to the occupied MOs in a "reference" cycle ("KeepOrbitals").
 The reference cycle is always the PREVIOUS cycle: it will evolve with
 the SCF procedure.
1
 ***************************************************************************************************



                                      ****************************************
                                      *  B U I L D : (Fragments, Functions)  *
                                      ****************************************
  



 =======
 S F O s  ***  (Symmetrized Fragment Orbitals)  ***
 =======
  
 SFOs are linear combinations of (valence) Fragment Orbitals (FOs), such that the SFOs transform as the
 irreducible representations of the (molecular) symmetry group. Each SFO is therefore characterized by
 an irrep of the molecule and by a few (or only one) generating FOs.
 The SFOs constitute a symmetry-adapted basis for the Fock matrix. The MO eigenvector coefficients in
 this basis provide a direct interpretation of the MOs in terms of Frontier Orbital Theory.

 The SFOs are combined with auxiliary Core Functions (CFs) to ensure orthogonalization on the (frozen)
 Core Orbitals (COs). The Core-orthogonalized SFOs (CSFOs) constitute the true Fock basis.

 The FOs, and hence also the (C)SFOs are combinations of the elementary basis functions (BAS). The basis
 functions that participate in the description of the SFOs depend on the irrep. The indices of the
 involved functions are printed below for each irrep.
 (The complete list of primitive basis functions is printed in another section)

 Total nr. of (C)SFOs (summation over all irreps) :   222

 NOTE: a (C)SFO that is defined as a combination of more than one FO is usually NOT normalized.



                                       === A ===
 Nr. of SFOs :  222
 Cartesian basis functions that participate in this irrep (total number =   252) :
      1     2     3     4     5     6     9    12     7    10
     13     8    11    14    15    16    17    18    19    20
     21    22    23    24    25    26    27    28    29    30
     31    32    33    34    35    36    39    42    37    40
     43    38    41    44    45    46    47    48    49    50
     51    52    53    54    55    56    57    58    59    60
     61    62    63    64    65    66    69    72    67    70
     73    68    71    74    75    76    77    78    79    80
     81    82    83    84    85    86    87    88    89    90
     91    92    93    94    95    96    99   102    97   100
    103    98   101   104   105   106   107   108   109   110
    111   112   113   114   115   116   117   118   119   120
    121   122   123   124   125   126   127   128   129   130
    131   132   133   134   135   136   137   138   139   140
    141   142   143   144   145   146   147   148   149   150
    151   152   153   154   155   156   157   158   159   160
    161   162   163   164   165   166   167   168   169   170
    171   172   173   174   175   176   177   178   179   180
    181   182   183   184   185   186   187   188   189   190
    191   192   193   194   195   196   197   198   201   204
    199   202   205   200   203   206   207   208   209   210
    211   212   213   214   215   216   217   218   219   220
    221   222   223   224   225   226   227   228   231   234
    229   232   235   230   233   236   237   238   239   240
    241   242   243   244   245   246   247   248   249   250
    251   252

    SFO  (index         Fragment          Generating    Expansion in Fragment Orbitals
  indx  incl.CFs)   Occup   Orb.Energy   FragmentType  Coeff.   Orbital     on Fragment
 --------------------------------------------------------------------------------------
     1       1      2.000     -10.064 au  C             1.00      1 S               1
                        (    -273.865 eV)
     2       2      2.000      -0.507 au  C             1.00      2 S               1
                        (     -13.802 eV)
     3       3       --         0.384 au  C             1.00      3 S               1
                        (      10.456 eV)
     4       4       --         5.458 au  C             1.00      4 S               1
                        (     148.511 eV)
     5       5       --        49.970 au  C             1.00      5 S               1
                        (    1359.766 eV)
     6       6      0.667      -0.189 au  C             1.00      1 P:x             1
                        (      -5.135 eV)
     7       7       --         0.168 au  C             1.00      2 P:x             1
                        (       4.559 eV)
     8       8       --         2.056 au  C             1.00      3 P:x             1
                        (      55.959 eV)
     9       9      0.667      -0.189 au  C             1.00      1 P:y             1
                        (      -5.135 eV)
    10      10       --         0.168 au  C             1.00      2 P:y             1
                        (       4.559 eV)
    11      11       --         2.056 au  C             1.00      3 P:y             1
                        (      55.959 eV)
    12      12      0.667      -0.189 au  C             1.00      1 P:z             1
                        (      -5.135 eV)
    13      13       --         0.168 au  C             1.00      2 P:z             1
                        (       4.559 eV)
    14      14       --         2.056 au  C             1.00      3 P:z             1
                        (      55.959 eV)
    15      15       --         1.235 au  C             1.00      1 D:z2            1
                        (      33.605 eV)
    16      16       --         1.235 au  C             1.00      1 D:x2-y2         1
                        (      33.605 eV)
    17      17       --         1.235 au  C             1.00      1 D:xy            1
                        (      33.605 eV)
    18      18       --         1.235 au  C             1.00      1 D:xz            1
                        (      33.605 eV)
    19      19       --         1.235 au  C             1.00      1 D:yz            1
                        (      33.605 eV)
    20      20       --         4.005 au  C             1.00      1 F:z3            1
                        (     108.969 eV)
    21      21       --         4.005 au  C             1.00      1 F:z             1
                        (     108.969 eV)
    22      22       --         4.005 au  C             1.00      1 F:xyz           1
                        (     108.969 eV)
    23      23       --         4.005 au  C             1.00      1 F:z2x           1
                        (     108.969 eV)
    24      24       --         4.005 au  C             1.00      1 F:z2y           1
                        (     108.969 eV)
    25      25       --         4.005 au  C             1.00      1 F:x             1
                        (     108.969 eV)
    26      26       --         4.005 au  C             1.00      1 F:y             1
                        (     108.969 eV)
    27      27      2.000     -10.064 au  C             1.00      1 S               2
                        (    -273.865 eV)
    28      28      2.000      -0.507 au  C             1.00      2 S               2
                        (     -13.802 eV)
    29      29       --         0.384 au  C             1.00      3 S               2
                        (      10.456 eV)
    30      30       --         5.458 au  C             1.00      4 S               2
                        (     148.511 eV)
    31      31       --        49.970 au  C             1.00      5 S               2
                        (    1359.766 eV)
    32      32      0.667      -0.189 au  C             1.00      1 P:x             2
                        (      -5.135 eV)
    33      33       --         0.168 au  C             1.00      2 P:x             2
                        (       4.559 eV)
    34      34       --         2.056 au  C             1.00      3 P:x             2
                        (      55.959 eV)
    35      35      0.667      -0.189 au  C             1.00      1 P:y             2
                        (      -5.135 eV)
    36      36       --         0.168 au  C             1.00      2 P:y             2
                        (       4.559 eV)
    37      37       --         2.056 au  C             1.00      3 P:y             2
                        (      55.959 eV)
    38      38      0.667      -0.189 au  C             1.00      1 P:z             2
                        (      -5.135 eV)
    39      39       --         0.168 au  C             1.00      2 P:z             2
                        (       4.559 eV)
    40      40       --         2.056 au  C             1.00      3 P:z             2
                        (      55.959 eV)
    41      41       --         1.235 au  C             1.00      1 D:z2            2
                        (      33.605 eV)
    42      42       --         1.235 au  C             1.00      1 D:x2-y2         2
                        (      33.605 eV)
    43      43       --         1.235 au  C             1.00      1 D:xy            2
                        (      33.605 eV)
    44      44       --         1.235 au  C             1.00      1 D:xz            2
                        (      33.605 eV)
    45      45       --         1.235 au  C             1.00      1 D:yz            2
                        (      33.605 eV)
    46      46       --         4.005 au  C             1.00      1 F:z3            2
                        (     108.969 eV)
    47      47       --         4.005 au  C             1.00      1 F:z             2
                        (     108.969 eV)
    48      48       --         4.005 au  C             1.00      1 F:xyz           2
                        (     108.969 eV)
    49      49       --         4.005 au  C             1.00      1 F:z2x           2
                        (     108.969 eV)
    50      50       --         4.005 au  C             1.00      1 F:z2y           2
                        (     108.969 eV)
    51      51       --         4.005 au  C             1.00      1 F:x             2
                        (     108.969 eV)
    52      52       --         4.005 au  C             1.00      1 F:y             2
                        (     108.969 eV)
    53      53      2.000     -10.064 au  C             1.00      1 S               3
                        (    -273.865 eV)
    54      54      2.000      -0.507 au  C             1.00      2 S               3
                        (     -13.802 eV)
    55      55       --         0.384 au  C             1.00      3 S               3
                        (      10.456 eV)
    56      56       --         5.458 au  C             1.00      4 S               3
                        (     148.511 eV)
    57      57       --        49.970 au  C             1.00      5 S               3
                        (    1359.766 eV)
    58      58      0.667      -0.189 au  C             1.00      1 P:x             3
                        (      -5.135 eV)
    59      59       --         0.168 au  C             1.00      2 P:x             3
                        (       4.559 eV)
    60      60       --         2.056 au  C             1.00      3 P:x             3
                        (      55.959 eV)
    61      61      0.667      -0.189 au  C             1.00      1 P:y             3
                        (      -5.135 eV)
    62      62       --         0.168 au  C             1.00      2 P:y             3
                        (       4.559 eV)
    63      63       --         2.056 au  C             1.00      3 P:y             3
                        (      55.959 eV)
    64      64      0.667      -0.189 au  C             1.00      1 P:z             3
                        (      -5.135 eV)
    65      65       --         0.168 au  C             1.00      2 P:z             3
                        (       4.559 eV)
    66      66       --         2.056 au  C             1.00      3 P:z             3
                        (      55.959 eV)
    67      67       --         1.235 au  C             1.00      1 D:z2            3
                        (      33.605 eV)
    68      68       --         1.235 au  C             1.00      1 D:x2-y2         3
                        (      33.605 eV)
    69      69       --         1.235 au  C             1.00      1 D:xy            3
                        (      33.605 eV)
    70      70       --         1.235 au  C             1.00      1 D:xz            3
                        (      33.605 eV)
    71      71       --         1.235 au  C             1.00      1 D:yz            3
                        (      33.605 eV)
    72      72       --         4.005 au  C             1.00      1 F:z3            3
                        (     108.969 eV)
    73      73       --         4.005 au  C             1.00      1 F:z             3
                        (     108.969 eV)
    74      74       --         4.005 au  C             1.00      1 F:xyz           3
                        (     108.969 eV)
    75      75       --         4.005 au  C             1.00      1 F:z2x           3
                        (     108.969 eV)
    76      76       --         4.005 au  C             1.00      1 F:z2y           3
                        (     108.969 eV)
    77      77       --         4.005 au  C             1.00      1 F:x             3
                        (     108.969 eV)
    78      78       --         4.005 au  C             1.00      1 F:y             3
                        (     108.969 eV)
    79      79      2.000     -10.064 au  C             1.00      1 S               4
                        (    -273.865 eV)
    80      80      2.000      -0.507 au  C             1.00      2 S               4
                        (     -13.802 eV)
    81      81       --         0.384 au  C             1.00      3 S               4
                        (      10.456 eV)
    82      82       --         5.458 au  C             1.00      4 S               4
                        (     148.511 eV)
    83      83       --        49.970 au  C             1.00      5 S               4
                        (    1359.766 eV)
    84      84      0.667      -0.189 au  C             1.00      1 P:x             4
                        (      -5.135 eV)
    85      85       --         0.168 au  C             1.00      2 P:x             4
                        (       4.559 eV)
    86      86       --         2.056 au  C             1.00      3 P:x             4
                        (      55.959 eV)
    87      87      0.667      -0.189 au  C             1.00      1 P:y             4
                        (      -5.135 eV)
    88      88       --         0.168 au  C             1.00      2 P:y             4
                        (       4.559 eV)
    89      89       --         2.056 au  C             1.00      3 P:y             4
                        (      55.959 eV)
    90      90      0.667      -0.189 au  C             1.00      1 P:z             4
                        (      -5.135 eV)
    91      91       --         0.168 au  C             1.00      2 P:z             4
                        (       4.559 eV)
    92      92       --         2.056 au  C             1.00      3 P:z             4
                        (      55.959 eV)
    93      93       --         1.235 au  C             1.00      1 D:z2            4
                        (      33.605 eV)
    94      94       --         1.235 au  C             1.00      1 D:x2-y2         4
                        (      33.605 eV)
    95      95       --         1.235 au  C             1.00      1 D:xy            4
                        (      33.605 eV)
    96      96       --         1.235 au  C             1.00      1 D:xz            4
                        (      33.605 eV)
    97      97       --         1.235 au  C             1.00      1 D:yz            4
                        (      33.605 eV)
    98      98       --         4.005 au  C             1.00      1 F:z3            4
                        (     108.969 eV)
    99      99       --         4.005 au  C             1.00      1 F:z             4
                        (     108.969 eV)
   100     100       --         4.005 au  C             1.00      1 F:xyz           4
                        (     108.969 eV)
   101     101       --         4.005 au  C             1.00      1 F:z2x           4
                        (     108.969 eV)
   102     102       --         4.005 au  C             1.00      1 F:z2y           4
                        (     108.969 eV)
   103     103       --         4.005 au  C             1.00      1 F:x             4
                        (     108.969 eV)
   104     104       --         4.005 au  C             1.00      1 F:y             4
                        (     108.969 eV)
   105     105      1.000      -0.238 au  H             1.00      1 S               5
                        (      -6.484 eV)
   106     106       --         0.077 au  H             1.00      2 S               5
                        (       2.096 eV)
   107     107       --         1.521 au  H             1.00      3 S               5
                        (      41.380 eV)
   108     108       --         0.410 au  H             1.00      1 P:x             5
                        (      11.162 eV)
   109     109       --         0.410 au  H             1.00      1 P:y             5
                        (      11.162 eV)
   110     110       --         0.410 au  H             1.00      1 P:z             5
                        (      11.162 eV)
   111     111       --         2.567 au  H             1.00      1 D:z2            5
                        (      69.838 eV)
   112     112       --         2.567 au  H             1.00      1 D:x2-y2         5
                        (      69.838 eV)
   113     113       --         2.567 au  H             1.00      1 D:xy            5
                        (      69.838 eV)
   114     114       --         2.567 au  H             1.00      1 D:xz            5
                        (      69.838 eV)
   115     115       --         2.567 au  H             1.00      1 D:yz            5
                        (      69.838 eV)
   116     116      1.000      -0.238 au  H             1.00      1 S               6
                        (      -6.484 eV)
   117     117       --         0.077 au  H             1.00      2 S               6
                        (       2.096 eV)
   118     118       --         1.521 au  H             1.00      3 S               6
                        (      41.380 eV)
   119     119       --         0.410 au  H             1.00      1 P:x             6
                        (      11.162 eV)
   120     120       --         0.410 au  H             1.00      1 P:y             6
                        (      11.162 eV)
   121     121       --         0.410 au  H             1.00      1 P:z             6
                        (      11.162 eV)
   122     122       --         2.567 au  H             1.00      1 D:z2            6
                        (      69.838 eV)
   123     123       --         2.567 au  H             1.00      1 D:x2-y2         6
                        (      69.838 eV)
   124     124       --         2.567 au  H             1.00      1 D:xy            6
                        (      69.838 eV)
   125     125       --         2.567 au  H             1.00      1 D:xz            6
                        (      69.838 eV)
   126     126       --         2.567 au  H             1.00      1 D:yz            6
                        (      69.838 eV)
   127     127      1.000      -0.238 au  H             1.00      1 S               7
                        (      -6.484 eV)
   128     128       --         0.077 au  H             1.00      2 S               7
                        (       2.096 eV)
   129     129       --         1.521 au  H             1.00      3 S               7
                        (      41.380 eV)
   130     130       --         0.410 au  H             1.00      1 P:x             7
                        (      11.162 eV)
   131     131       --         0.410 au  H             1.00      1 P:y             7
                        (      11.162 eV)
   132     132       --         0.410 au  H             1.00      1 P:z             7
                        (      11.162 eV)
   133     133       --         2.567 au  H             1.00      1 D:z2            7
                        (      69.838 eV)
   134     134       --         2.567 au  H             1.00      1 D:x2-y2         7
                        (      69.838 eV)
   135     135       --         2.567 au  H             1.00      1 D:xy            7
                        (      69.838 eV)
   136     136       --         2.567 au  H             1.00      1 D:xz            7
                        (      69.838 eV)
   137     137       --         2.567 au  H             1.00      1 D:yz            7
                        (      69.838 eV)
   138     138      1.000      -0.238 au  H             1.00      1 S               8
                        (      -6.484 eV)
   139     139       --         0.077 au  H             1.00      2 S               8
                        (       2.096 eV)
   140     140       --         1.521 au  H             1.00      3 S               8
                        (      41.380 eV)
   141     141       --         0.410 au  H             1.00      1 P:x             8
                        (      11.162 eV)
   142     142       --         0.410 au  H             1.00      1 P:y             8
                        (      11.162 eV)
   143     143       --         0.410 au  H             1.00      1 P:z             8
                        (      11.162 eV)
   144     144       --         2.567 au  H             1.00      1 D:z2            8
                        (      69.838 eV)
   145     145       --         2.567 au  H             1.00      1 D:x2-y2         8
                        (      69.838 eV)
   146     146       --         2.567 au  H             1.00      1 D:xy            8
                        (      69.838 eV)
   147     147       --         2.567 au  H             1.00      1 D:xz            8
                        (      69.838 eV)
   148     148       --         2.567 au  H             1.00      1 D:yz            8
                        (      69.838 eV)
   149     149      1.000      -0.238 au  H             1.00      1 S               9
                        (      -6.484 eV)
   150     150       --         0.077 au  H             1.00      2 S               9
                        (       2.096 eV)
   151     151       --         1.521 au  H             1.00      3 S               9
                        (      41.380 eV)
   152     152       --         0.410 au  H             1.00      1 P:x             9
                        (      11.162 eV)
   153     153       --         0.410 au  H             1.00      1 P:y             9
                        (      11.162 eV)
   154     154       --         0.410 au  H             1.00      1 P:z             9
                        (      11.162 eV)
   155     155       --         2.567 au  H             1.00      1 D:z2            9
                        (      69.838 eV)
   156     156       --         2.567 au  H             1.00      1 D:x2-y2         9
                        (      69.838 eV)
   157     157       --         2.567 au  H             1.00      1 D:xy            9
                        (      69.838 eV)
   158     158       --         2.567 au  H             1.00      1 D:xz            9
                        (      69.838 eV)
   159     159       --         2.567 au  H             1.00      1 D:yz            9
                        (      69.838 eV)
   160     160      1.000      -0.238 au  H             1.00      1 S              10
                        (      -6.484 eV)
   161     161       --         0.077 au  H             1.00      2 S              10
                        (       2.096 eV)
   162     162       --         1.521 au  H             1.00      3 S              10
                        (      41.380 eV)
   163     163       --         0.410 au  H             1.00      1 P:x            10
                        (      11.162 eV)
   164     164       --         0.410 au  H             1.00      1 P:y            10
                        (      11.162 eV)
   165     165       --         0.410 au  H             1.00      1 P:z            10
                        (      11.162 eV)
   166     166       --         2.567 au  H             1.00      1 D:z2           10
                        (      69.838 eV)
   167     167       --         2.567 au  H             1.00      1 D:x2-y2        10
                        (      69.838 eV)
   168     168       --         2.567 au  H             1.00      1 D:xy           10
                        (      69.838 eV)
   169     169       --         2.567 au  H             1.00      1 D:xz           10
                        (      69.838 eV)
   170     170       --         2.567 au  H             1.00      1 D:yz           10
                        (      69.838 eV)
   171     171      2.000     -18.926 au  O             1.00      1 S              11
                        (    -515.001 eV)
   172     172      2.000      -0.887 au  O             1.00      2 S              11
                        (     -24.136 eV)
   173     173       --         0.804 au  O             1.00      3 S              11
                        (      21.890 eV)
   174     174       --        13.488 au  O             1.00      4 S              11
                        (     367.032 eV)
   175     175       --       121.767 au  O             1.00      5 S              11
                        (    3313.451 eV)
   176     176      1.333      -0.329 au  O             1.00      1 P:x            11
                        (      -8.949 eV)
   177     177       --         0.351 au  O             1.00      2 P:x            11
                        (       9.557 eV)
   178     178       --         3.863 au  O             1.00      3 P:x            11
                        (     105.120 eV)
   179     179      1.333      -0.329 au  O             1.00      1 P:y            11
                        (      -8.949 eV)
   180     180       --         0.351 au  O             1.00      2 P:y            11
                        (       9.557 eV)
   181     181       --         3.863 au  O             1.00      3 P:y            11
                        (     105.120 eV)
   182     182      1.333      -0.329 au  O             1.00      1 P:z            11
                        (      -8.949 eV)
   183     183       --         0.351 au  O             1.00      2 P:z            11
                        (       9.557 eV)
   184     184       --         3.863 au  O             1.00      3 P:z            11
                        (     105.120 eV)
   185     185       --         1.072 au  O             1.00      1 D:z2           11
                        (      29.175 eV)
   186     186       --         1.072 au  O             1.00      1 D:x2-y2        11
                        (      29.175 eV)
   187     187       --         1.072 au  O             1.00      1 D:xy           11
                        (      29.175 eV)
   188     188       --         1.072 au  O             1.00      1 D:xz           11
                        (      29.175 eV)
   189     189       --         1.072 au  O             1.00      1 D:yz           11
                        (      29.175 eV)
   190     190       --         3.353 au  O             1.00      1 F:z3           11
                        (      91.230 eV)
   191     191       --         3.353 au  O             1.00      1 F:z            11
                        (      91.230 eV)
   192     192       --         3.353 au  O             1.00      1 F:xyz          11
                        (      91.230 eV)
   193     193       --         3.353 au  O             1.00      1 F:z2x          11
                        (      91.230 eV)
   194     194       --         3.353 au  O             1.00      1 F:z2y          11
                        (      91.230 eV)
   195     195       --         3.353 au  O             1.00      1 F:x            11
                        (      91.230 eV)
   196     196       --         3.353 au  O             1.00      1 F:y            11
                        (      91.230 eV)
   197     197      2.000     -24.380 au  F             1.00      1 S              12
                        (    -663.424 eV)
   198     198      2.000      -1.107 au  F             1.00      2 S              12
                        (     -30.122 eV)
   199     199       --         0.011 au  F             1.00      3 S              12
                        (       0.309 eV)
   200     200       --         1.586 au  F             1.00      4 S              12
                        (      43.147 eV)
   201     201       --        47.962 au  F             1.00      5 S              12
                        (    1305.109 eV)
   202     202      1.667      -0.407 au  F             1.00      1 P:x            12
                        (     -11.083 eV)
   203     203       --         0.433 au  F             1.00      2 P:x            12
                        (      11.793 eV)
   204     204       --         4.596 au  F             1.00      3 P:x            12
                        (     125.057 eV)
   205     205      1.667      -0.407 au  F             1.00      1 P:y            12
                        (     -11.083 eV)
   206     206       --         0.433 au  F             1.00      2 P:y            12
                        (      11.793 eV)
   207     207       --         4.596 au  F             1.00      3 P:y            12
                        (     125.057 eV)
   208     208      1.667      -0.407 au  F             1.00      1 P:z            12
                        (     -11.083 eV)
   209     209       --         0.433 au  F             1.00      2 P:z            12
                        (      11.793 eV)
   210     210       --         4.596 au  F             1.00      3 P:z            12
                        (     125.057 eV)
   211     211       --         1.123 au  F             1.00      1 D:z2           12
                        (      30.566 eV)
   212     212       --         1.123 au  F             1.00      1 D:x2-y2        12
                        (      30.566 eV)
   213     213       --         1.123 au  F             1.00      1 D:xy           12
                        (      30.566 eV)
   214     214       --         1.123 au  F             1.00      1 D:xz           12
                        (      30.566 eV)
   215     215       --         1.123 au  F             1.00      1 D:yz           12
                        (      30.566 eV)
   216     216       --         3.416 au  F             1.00      1 F:z3           12
                        (      92.960 eV)
   217     217       --         3.416 au  F             1.00      1 F:z            12
                        (      92.960 eV)
   218     218       --         3.416 au  F             1.00      1 F:xyz          12
                        (      92.960 eV)
   219     219       --         3.416 au  F             1.00      1 F:z2x          12
                        (      92.960 eV)
   220     220       --         3.416 au  F             1.00      1 F:z2y          12
                        (      92.960 eV)
   221     221       --         3.416 au  F             1.00      1 F:x            12
                        (      92.960 eV)
   222     222       --         3.416 au  F             1.00      1 F:y            12
                        (      92.960 eV)



 ================================
 (Slater-type)  F U N C T I O N S  ***  (Basis and Fit)  ***
 ================================
  

 Atom Type    1  (C)
 ==============

 Valence Basis Sets:  10
 -----------------------
   1 S    7.680000
   1 S    5.000000
   2 S    1.280000
   2 S    2.100000
   2 S    4.600000
   2 P    0.820000
   2 P    1.480000
   2 P    2.940000
   3 D    2.200000
   4 F    3.300000

 Atom Type    2  (H)
 ==============

 Valence Basis Sets:   5
 -----------------------
   1 S    0.690000
   1 S    0.920000
   1 S    1.580000
   2 P    1.250000
   3 D    2.500000

 Atom Type    3  (O)
 ==============

 Valence Basis Sets:  10
 -----------------------
   1 S    9.800000
   1 S    6.800000
   2 S    7.580000
   2 S    2.880000
   2 S    1.720000
   2 P    4.080000
   2 P    2.080000
   2 P    1.120000
   3 D    2.000000
   4 F    3.000000

 Atom Type    4  (F)
 ==============

 Valence Basis Sets:  10
 -----------------------
   1 S   10.880000
   1 S    7.700000
   2 S    3.240000
   2 S    1.940000
   2 S    0.740000
   2 P    4.540000
   2 P    2.300000
   2 P    1.240000
   3 D    2.000000
   4 F    3.000000


 BAS: List of all Elementary Cartesian Basis Functions
 =====================================================

 The numbering in the list below (to the right of the function characteristics) is referred
 to in print-outs of MO eigenvectors and Mulliken populations in the BAS representation
 (as contrasted to the SFO representation).

 Notes:
 1. The functions are characterized by a polynomial prefactor (powers of x,y,z and r) and
    an exponential decay factor alpha.
 2. Since the basis sets are specific for an atom TYPE, the individual functions occur on
    all atoms of that type.
 3. The word 'Core' in the left margin signals that it is a Core Function (CF) : not a
    degree of freedom in the valence set, but only used to ensure orthogonalization of
    the other valence basis functions on the frozen Core Orbitals.


 (power of) X  Y  Z  R     Alpha  on Atom
            ==========     =====     ==========

 C                                    1    2    3    4
                                  ---------------------------------------------------------------------------
            0  0  0  0     7.680      1   31   61   91
            0  0  0  0     5.000      2   32   62   92
            0  0  0  1     1.280      3   33   63   93
            0  0  0  1     2.100      4   34   64   94
            0  0  0  1     4.600      5   35   65   95
            1  0  0  0     0.820      6   36   66   96
            0  1  0  0     0.820      7   37   67   97
            0  0  1  0     0.820      8   38   68   98
            1  0  0  0     1.480      9   39   69   99
            0  1  0  0     1.480     10   40   70  100
            0  0  1  0     1.480     11   41   71  101
            1  0  0  0     2.940     12   42   72  102
            0  1  0  0     2.940     13   43   73  103
            0  0  1  0     2.940     14   44   74  104
            2  0  0  0     2.200     15   45   75  105
            1  1  0  0     2.200     16   46   76  106
            1  0  1  0     2.200     17   47   77  107
            0  2  0  0     2.200     18   48   78  108
            0  1  1  0     2.200     19   49   79  109
            0  0  2  0     2.200     20   50   80  110
            3  0  0  0     3.300     21   51   81  111
            2  1  0  0     3.300     22   52   82  112
            2  0  1  0     3.300     23   53   83  113
            1  2  0  0     3.300     24   54   84  114
            1  1  1  0     3.300     25   55   85  115
            1  0  2  0     3.300     26   56   86  116
            0  3  0  0     3.300     27   57   87  117
            0  2  1  0     3.300     28   58   88  118
            0  1  2  0     3.300     29   59   89  119
            0  0  3  0     3.300     30   60   90  120

 H                                    5    6    7    8    9   10
                                  ---------------------------------------------------------------------------
            0  0  0  0     0.690    121  133  145  157  169  181
            0  0  0  0     0.920    122  134  146  158  170  182
            0  0  0  0     1.580    123  135  147  159  171  183
            1  0  0  0     1.250    124  136  148  160  172  184
            0  1  0  0     1.250    125  137  149  161  173  185
            0  0  1  0     1.250    126  138  150  162  174  186
            2  0  0  0     2.500    127  139  151  163  175  187
            1  1  0  0     2.500    128  140  152  164  176  188
            1  0  1  0     2.500    129  141  153  165  177  189
            0  2  0  0     2.500    130  142  154  166  178  190
            0  1  1  0     2.500    131  143  155  167  179  191
            0  0  2  0     2.500    132  144  156  168  180  192

 O                                   11
                                  ---------------------------------------------------------------------------
            0  0  0  0     9.800    193
            0  0  0  0     6.800    194
            0  0  0  1     7.580    195
            0  0  0  1     2.880    196
            0  0  0  1     1.720    197
            1  0  0  0     4.080    198
            0  1  0  0     4.080    199
            0  0  1  0     4.080    200
            1  0  0  0     2.080    201
            0  1  0  0     2.080    202
            0  0  1  0     2.080    203
            1  0  0  0     1.120    204
            0  1  0  0     1.120    205
            0  0  1  0     1.120    206
            2  0  0  0     2.000    207
            1  1  0  0     2.000    208
            1  0  1  0     2.000    209
            0  2  0  0     2.000    210
            0  1  1  0     2.000    211
            0  0  2  0     2.000    212
            3  0  0  0     3.000    213
            2  1  0  0     3.000    214
            2  0  1  0     3.000    215
            1  2  0  0     3.000    216
            1  1  1  0     3.000    217
            1  0  2  0     3.000    218
            0  3  0  0     3.000    219
            0  2  1  0     3.000    220
            0  1  2  0     3.000    221
            0  0  3  0     3.000    222

 F                                   12
                                  ---------------------------------------------------------------------------
            0  0  0  0    10.880    223
            0  0  0  0     7.700    224
            0  0  0  1     3.240    225
            0  0  0  1     1.940    226
            0  0  0  1     0.740    227
            1  0  0  0     4.540    228
            0  1  0  0     4.540    229
            0  0  1  0     4.540    230
            1  0  0  0     2.300    231
            0  1  0  0     2.300    232
            0  0  1  0     2.300    233
            1  0  0  0     1.240    234
            0  1  0  0     1.240    235
            0  0  1  0     1.240    236
            2  0  0  0     2.000    237
            1  1  0  0     2.000    238
            1  0  1  0     2.000    239
            0  2  0  0     2.000    240
            0  1  1  0     2.000    241
            0  0  2  0     2.000    242
            3  0  0  0     3.000    243
            2  1  0  0     3.000    244
            2  0  1  0     3.000    245
            1  2  0  0     3.000    246
            1  1  1  0     3.000    247
            1  0  2  0     3.000    248
            0  3  0  0     3.000    249
            0  2  1  0     3.000    250
            0  1  2  0     3.000    251
            0  0  3  0     3.000    252

 Total number of charge fitting functions (nprimf)       805
 Total number of Cartesian basis functions (naos)        252
 Total number of Cartesian core functions  (ncos)          0

1
 ***************************************************************************************************



                                              ***********************
                                              *  T E C H N I C A L  *
                                              ***********************
  



 =============================================================
 P A R A L L E L I Z A T I O N  and  V E C T O R I Z A T I O N
 =============================================================
  
 Nr of parallel processes:                                1
 Maximum vector length in NumInt loops:                 128



 =====================
 S C F   U P D A T E S
 =====================
  
 Max. nr. of cycles:                                99
 Convergence criterion:                              0.0000010000
   secondary criterion:                              0.0010000000

 Mix parameter (when DIIS does not apply):           0.2000000000
 Mixed ADIIS+SDIIS will be used                  
    Max number of expansion vectors:                10
    Pure ADIIS when Max([F,P]) is above              0.1000000000
    Pure SDIIS when Max([F,P]) is below              0.0010000000
 Automatic ElectronSmearing (in case of problematic SCF convergence) disabled



 =================
 P R E C I S I O N  ***  (General: NumInt, NeglectFunctionTails, ...)  ***
 =================
  

 NumInt:           Target precision:                 8.0000000000
 -------           Initial precision:                8.0000000000
                   Min. precision (optimization):    8.0000000000

 Neglect Functions:          Basis functions:        0.1000000000E-09
 ------------------          Fit functions:          0.1000000000E-09



 ===========================
 L I N E A R   S C A L I N G
 ===========================
  

 Cut-off radii density fit:                        0.1000000000E-11
 Overlap cut-off criterion AO matrix elements:     0.1000000000E-09
 Cut-offs for Coulomb potential and fitted density:0.1000000000E-11
 Cut-off criterion for Coulomb multipole terms:    0.1000000000E-11
 Progressive Convergence parameter:                 0.000000000    

 Number of elements of the density matrix on this node (used, total):     31878     31878



 ===========================================
 Numerical Integration : Fuzzy Cells (Becke)
 ===========================================
  
 Becke grid quality: VERYGOOD       
  
 Lebedev angular grid order:             min:  13 max:  41
 Nr. of radial points:                   min:  64 max:  76

 Total nr. of points:     287172
 Nr. of blocks:             2244
 Block length:               128
 Nr. of dummy points:         60


 Test of Precision of the Numerical Integration Grid
 ===================================================

 Integral of the Total Core Density:                   0.00000000000000



 ========================
 Density Fitting (zlmFit)
 ========================
  
 ZlmFit Fit Quality: VERYGOOD       
  
 Max L-expansion:                        min:  10 max:  11
 Nr. of radial interpolation points:     min: 130 max: 180



 =====
 S C F  ***  ScaSCF  ***
 =====
  
 Initial density matrix is taken from previous geometry

 CYCLE    1
  ***********************************************************
  ** : orbital data taken from :/scratch/3467/amstmp_8.no_catalyst_H_F.P1_kid0.684920175/GOStep9.rkf
  ***********************************************************
 SCF Error: norm([F,P])=      0.000001067349, max([F,P])=      0.000000161740
 ***** SPIN 1 *****
 orbitals (Q,E):
 ---------------
 A :15...34          ( 1.00    -0.4248)  ( 1.00    -0.4001)  ( 1.00    -0.3893)  ( 1.00    -0.3730)
                     ( 1.00    -0.3662)  ( 1.00    -0.3629)  ( 1.00    -0.3164)  ( 1.00    -0.3087)
                     ( 1.00    -0.2297)  ( 1.00    -0.2273)  ( 0.00    -0.0436)  ( 0.00    -0.0172)
                     ( 0.00    -0.0055)  ( 0.00     0.0186)  ( 0.00     0.0249)  ( 0.00     0.0428)
                     ( 0.00     0.0516)  ( 0.00     0.0550)  ( 0.00     0.0845)  ( 0.00     0.1098)
 ***** SPIN 2 *****
 orbitals (Q,E):
 ---------------
 A :14...33          ( 1.00    -0.4577)  ( 1.00    -0.4198)  ( 1.00    -0.3915)  ( 1.00    -0.3840)
                     ( 1.00    -0.3662)  ( 1.00    -0.3629)  ( 1.00    -0.3461)  ( 1.00    -0.3118)
                     ( 1.00    -0.3061)  ( 1.00    -0.2169)  ( 0.00    -0.1754)  ( 0.00    -0.0234)
                     ( 0.00    -0.0169)  ( 0.00    -0.0053)  ( 0.00     0.0189)  ( 0.00     0.0255)
                     ( 0.00     0.0467)  ( 0.00     0.0534)  ( 0.00     0.0556)  ( 0.00     0.0855)
  
 Spin polar: 1 (Spin_A minus Spin_B electrons)

 CYCLE    2
  SDIIS (wt  0.000):  0.6165  0.3835
 A-DIIS (wt  1.000):  0.0000  1.0000
  DIIS coefficients:  0.0000  1.0000
 SCF Error: norm([F,P])=      0.000001668552, max([F,P])=      0.000000285841
 ***** SPIN 1 *****
 orbitals (Q,E):
 ---------------
 A :15...25          ( 1.00    -0.4248)  ( 1.00    -0.4001)  ( 1.00    -0.3893)  ( 1.00    -0.3730)
                     ( 1.00    -0.3662)  ( 1.00    -0.3629)  ( 1.00    -0.3164)  ( 1.00    -0.3087)
                     ( 1.00    -0.2297)  ( 1.00    -0.2273)  ( 0.00    -0.0436)
 ***** SPIN 2 *****
 orbitals (Q,E):
 ---------------
 A :14...24          ( 1.00    -0.4577)  ( 1.00    -0.4198)  ( 1.00    -0.3915)  ( 1.00    -0.3840)
                     ( 1.00    -0.3662)  ( 1.00    -0.3629)  ( 1.00    -0.3461)  ( 1.00    -0.3118)
                     ( 1.00    -0.3061)  ( 1.00    -0.2169)  ( 0.00    -0.1754)
  
 Spin polar: 1 (Spin_A minus Spin_B electrons)

 SCF CONVERGED

 CYCLE    3
1
 ***************************************************************************************************



                                                *******************
                                                *  R E S U L T S  *
                                                *******************
  
 *** Using FIT density in Focky
  SDIIS (wt  0.000):  0.2757  0.5268  0.1975
 A-DIIS (wt  1.000):  0.0000  0.7250  0.2750
  DIIS coefficients:  0.0000  0.7250  0.2750
 SCF Error: norm([F,P])=      0.000003126255, max([F,P])=      0.000000539229


                                   ***** SPIN 1 *****

 Scaled ZORA Orbital Energies, per Irrep and Spin:
 =================================================
                        Occup              E (au)              E (eV)       Diff (eV) with prev. cycle
                        -----      --------------------        ------       --------------------------
 A
              15        1.000     -0.42482946428727E+00       -11.560               2.53E-06
[...]
 Index  Atom      ---- Displacements (x/y/z) ----
     1     C      -0.029041   0.081002   0.003777
     2     C      -0.169771  -0.032272  -0.039143
     3     H      -0.130931   0.091713  -0.332536
     4     C      -0.009499  -0.023978  -0.006004
     5     H      -0.032061   0.091052  -0.106002
     6     O       0.030038  -0.010774   0.008063
     7     C      -0.059721  -0.069168   0.166111
     8     H       0.219830   0.126398   0.130208
     9     H       0.250196   0.013001   0.677220
    10     H       0.038622   0.125145  -0.349535
    11     F       0.125065   0.015245  -0.086867
    12     H       0.011440  -0.034871   0.004919
 
 Mode:    17      Frequency (cm-1):      910.6725     Intensity (km/mol):       12.4471
 Index  Atom      ---- Displacements (x/y/z) ----
     1     C       0.017979  -0.104749  -0.019808
     2     C      -0.089937   0.046072   0.039967
     3     H       0.032806  -0.104669   0.232136
     4     C       0.010646   0.026903   0.095344
     5     H       0.203774  -0.216075   0.078979
     6     O      -0.009865  -0.005785  -0.023810
     7     C      -0.065865   0.087929   0.003343
     8     H      -0.127084  -0.035375  -0.637169
     9     H       0.091979  -0.212887   0.165881
    10     H       0.203472  -0.187345   0.218956
    11     F       0.059814   0.007774  -0.038364
    12     H       0.138336   0.032978  -0.372786
 
 Mode:    18      Frequency (cm-1):      927.9495     Intensity (km/mol):       17.4878
 Index  Atom      ---- Displacements (x/y/z) ----
     1     C      -0.021434  -0.040217   0.094123
     2     C      -0.068837   0.008372   0.108164
     3     H      -0.024386  -0.021565   0.134342
     4     C       0.056091   0.012656  -0.191635
     5     H       0.128896  -0.106619  -0.032152
     6     O      -0.017453  -0.002668   0.043843
     7     C      -0.034627   0.037408  -0.070277
     8     H      -0.068930  -0.005067  -0.242024
     9     H      -0.002928  -0.044397  -0.040824
    10     H       0.023205  -0.034988  -0.001597
    11     F       0.066557   0.002771  -0.035647
    12     H      -0.214266  -0.014170   0.868360
 
 Mode:    19      Frequency (cm-1):     1013.2637     Intensity (km/mol):       73.2286
 Index  Atom      ---- Displacements (x/y/z) ----
     1     C       0.033418   0.067946  -0.074947
     2     C      -0.122337  -0.063679   0.315730
     3     H      -0.200917   0.014660   0.257805
     4     C      -0.062242  -0.022096   0.081690
     5     H      -0.067909   0.104913   0.074794
     6     O       0.015880   0.000751  -0.016316
     7     C       0.027081  -0.060777  -0.184431
     8     H       0.004355  -0.002116   0.332573
     9     H      -0.152594   0.197276  -0.382884
    10     H      -0.267872   0.186056  -0.332639
    11     F       0.098775   0.022916  -0.050939
    12     H       0.048310  -0.008759  -0.374097
 
 Mode:    20      Frequency (cm-1):     1079.7531     Intensity (km/mol):       15.0985
 Index  Atom      ---- Displacements (x/y/z) ----
     1     C      -0.082815   0.069181  -0.006653
     2     C      -0.192769  -0.071971  -0.118218
     3     H      -0.172872  -0.181121   0.095205
     4     C       0.028160   0.002615   0.002741
     5     H       0.110942  -0.037119  -0.004143
     6     O       0.024740  -0.015925   0.006656
     7     C       0.159217   0.051646   0.059011
     8     H      -0.215598  -0.194498   0.239353
     9     H      -0.181868  -0.034640  -0.471475
    10     H      -0.059418  -0.093321   0.615418
    11     F       0.055696   0.012233   0.006515
    12     H       0.126518  -0.050023   0.048728
 
 Mode:    21      Frequency (cm-1):     1134.8412     Intensity (km/mol):       22.3855
 Index  Atom      ---- Displacements (x/y/z) ----
     1     C       0.143339  -0.069499   0.026222
     2     C      -0.050111   0.132765  -0.032328
     3     H      -0.277813   0.337205  -0.193348
     4     C      -0.141609  -0.044447  -0.034949
     5     H       0.619440  -0.336299   0.214956
     6     O       0.009160  -0.003413   0.001490
     7     C       0.044428  -0.024724   0.017639
     8     H       0.027542  -0.009968   0.196541
     9     H      -0.045112   0.103491  -0.083458
    10     H      -0.095327   0.056177   0.036846
    11     F      -0.002460  -0.002006   0.007557
    12     H      -0.280654   0.011683  -0.058837
 
 Mode:    22      Frequency (cm-1):     1151.4461     Intensity (km/mol):        8.2860
 Index  Atom      ---- Displacements (x/y/z) ----
     1     C      -0.143999  -0.261965  -0.050907
     2     C      -0.064679   0.214050   0.009154
     3     H      -0.185195   0.390399  -0.222223
     4     C       0.226278   0.111549   0.061203
     5     H      -0.375447  -0.163055  -0.043776
     6     O      -0.045734  -0.005157  -0.012106
     7     C       0.057437  -0.083985   0.007630
     8     H       0.095032  -0.000095   0.348605
     9     H      -0.073999   0.227794  -0.109080
    10     H      -0.204763   0.147412  -0.124936
    11     F       0.015662  -0.019914  -0.002208
    12     H       0.281503   0.097094   0.062735
 
 Mode:    23      Frequency (cm-1):     1236.2310     Intensity (km/mol):        1.4737
 Index  Atom      ---- Displacements (x/y/z) ----
     1     C       0.124799  -0.064126   0.032927
     2     C      -0.004354  -0.075322  -0.011752
     3     H      -0.566280   0.272794  -0.081943
     4     C       0.009092   0.008826  -0.000361
     5     H      -0.524319   0.291964  -0.162713
     6     O      -0.025704  -0.001138  -0.006041
     7     C       0.007597   0.051509   0.016540
     8     H      -0.087041  -0.034987  -0.099182
     9     H      -0.009298  -0.115658  -0.056866
    10     H       0.061533  -0.032546   0.105312
    11     F       0.011238   0.021796   0.000614
    12     H      -0.311331   0.167597  -0.065072
 
 Mode:    24      Frequency (cm-1):     1298.8909     Intensity (km/mol):        3.0144
 Index  Atom      ---- Displacements (x/y/z) ----
     1     C       0.008451  -0.006040   0.012471
     2     C       0.017001   0.041310  -0.095689
     3     H      -0.345934  -0.196129   0.868393
     4     C      -0.001481   0.003597  -0.006207
     5     H      -0.017139   0.007506   0.004146
     6     O       0.000047  -0.002507   0.000766
     7     C      -0.026576  -0.060603   0.002200
     8     H       0.120415   0.053709   0.098439
     9     H       0.004127   0.087950   0.088046
    10     H      -0.038702   0.028956  -0.158933
    11     F       0.017371   0.016319   0.005823
    12     H      -0.019951   0.008965   0.016553
 
 Mode:    25      Frequency (cm-1):     1351.9951     Intensity (km/mol):       10.2487
 Index  Atom      ---- Displacements (x/y/z) ----
     1     C       0.067498  -0.000228   0.023080
     2     C      -0.079316   0.052791  -0.020720
     3     H       0.511939  -0.304404   0.036154
     4     C       0.016381   0.031713   0.001879
     5     H      -0.166456   0.129161  -0.053525
     6     O       0.004404  -0.047492   0.000563
     7     C       0.032884  -0.037943   0.062632
     8     H       0.031435  -0.058540  -0.253922
     9     H      -0.180757   0.167132  -0.225489
    10     H      -0.116779   0.176550  -0.208454
    11     F      -0.007047  -0.010084  -0.000012
    12     H      -0.462323   0.282253  -0.099684
 
 Mode:    26      Frequency (cm-1):     1364.3026     Intensity (km/mol):       10.2002
 Index  Atom      ---- Displacements (x/y/z) ----
     1     C      -0.018814   0.001889  -0.006713
     2     C       0.029166  -0.027850   0.002530
     3     H      -0.218108   0.122863  -0.028594
     4     C      -0.022298  -0.028063  -0.006624
     5     H       0.058563  -0.038999   0.024413
     6     O      -0.004842   0.038128  -0.000303
     7     C       0.014831  -0.009005   0.118317
     8     H       0.060622  -0.033957  -0.479023
     9     H      -0.320422   0.025663  -0.435478
    10     H       0.081883   0.193781  -0.421105
    11     F       0.002574   0.004885  -0.000827
    12     H       0.331428  -0.216087   0.080077
 
 Mode:    27      Frequency (cm-1):     1408.6782     Intensity (km/mol):        4.8159
 Index  Atom      ---- Displacements (x/y/z) ----
     1     C      -0.145023   0.063617  -0.041533
     2     C       0.072367  -0.042447   0.022301
     3     H      -0.289783   0.184800  -0.021018
     4     C       0.063221   0.068694   0.020890
     5     H       0.335269  -0.200797   0.105418
     6     O       0.036699  -0.097244   0.006035
     7     C      -0.024719   0.014011   0.023519
     8     H       0.091249   0.084234  -0.007428
     9     H      -0.094115  -0.144464  -0.150359
    10     H       0.249362  -0.070334  -0.149949
    11     F       0.005217   0.002624  -0.001433
    12     H      -0.566086   0.403611  -0.145211
 
 Mode:    28      Frequency (cm-1):     1448.2575     Intensity (km/mol):        6.9148
 Index  Atom      ---- Displacements (x/y/z) ----
     1     C       0.009343  -0.009390   0.002873
     2     C      -0.006555   0.037289  -0.007571
     3     H       0.084484  -0.043560   0.067584
     4     C      -0.004898   0.003461  -0.001756
     5     H      -0.008169   0.000255  -0.002348
     6     O       0.000294  -0.000394   0.000215
     7     C       0.016627   0.040399   0.011996
     8     H      -0.430640  -0.259679   0.293343
     9     H       0.100245  -0.653844  -0.032810
    10     H       0.089169   0.171580  -0.408858
    11     F      -0.001604  -0.002883   0.000407
    12     H       0.017630  -0.008591   0.006018
 
 Mode:    29      Frequency (cm-1):     1458.1844     Intensity (km/mol):        1.2846
 Index  Atom      ---- Displacements (x/y/z) ----
     1     C       0.038877  -0.019508   0.010515
     2     C      -0.050087   0.027441  -0.001611
     3     H       0.139527  -0.074298  -0.016973
     4     C      -0.008919  -0.009056  -0.002804
     5     H      -0.089487   0.048985  -0.029750
     6     O      -0.007099   0.013610  -0.001280
     7     C      -0.046833   0.009091   0.000299
     8     H       0.372445   0.325380   0.312826
     9     H      -0.178307  -0.167315  -0.288163
    10     H       0.586899  -0.340832  -0.057577
    11     F       0.000907  -0.002968   0.000416
    12     H       0.061793  -0.046842   0.015931
 
 Mode:    30      Frequency (cm-1):     1543.1044     Intensity (km/mol):       81.8664
 Index  Atom      ---- Displacements (x/y/z) ----
     1     C       0.014497  -0.067632   0.001585
     2     C       0.014809  -0.007757   0.005687
     3     H      -0.020439   0.018665  -0.039863
     4     C      -0.309077   0.432412  -0.069679
     5     H      -0.305251   0.115396  -0.072541
     6     O       0.195679  -0.272554   0.042229
     7     C      -0.003453   0.002869  -0.003349
     8     H       0.019160   0.014821  -0.027595
     9     H       0.000086   0.030036   0.009796
    10     H      -0.000868  -0.015506   0.031384
    11     F      -0.003893   0.001540   0.001561
    12     H       0.647436  -0.151993   0.182120
 
 Mode:    31      Frequency (cm-1):     2850.1401     Intensity (km/mol):       89.3160
 Index  Atom      ---- Displacements (x/y/z) ----
     1     C       0.003078  -0.000538   0.000708
     2     C       0.001641   0.002340   0.001291
     3     H      -0.023891  -0.031507  -0.016870
     4     C      -0.041877  -0.069736  -0.012457
     5     H      -0.004015  -0.008767  -0.001387
     6     O       0.002256  -0.002719   0.000539
     7     C      -0.000109   0.000361  -0.000004
     8     H       0.000690  -0.001199  -0.001133
     9     H      -0.001484  -0.000386   0.000373
    10     H       0.000940   0.000804   0.000951
    11     F      -0.000112   0.000246   0.000029
    12     H       0.437798   0.884164   0.133533
 
 Mode:    32      Frequency (cm-1):     2993.9017     Intensity (km/mol):       17.7580
 Index  Atom      ---- Displacements (x/y/z) ----
     1     C       0.001501   0.002266  -0.000267
     2     C      -0.036188  -0.067374  -0.031396
     3     H       0.451087   0.799983   0.365937
     4     C      -0.002743  -0.002495  -0.000682
     5     H      -0.017169  -0.028359  -0.006582
     6     O       0.000422  -0.000245   0.000154
     7     C       0.003597   0.008990  -0.001402
     8     H       0.044943  -0.057105   0.005342
     9     H      -0.055069  -0.005176   0.030336
    10     H      -0.028179  -0.048447  -0.019767
    11     F      -0.001099   0.000305   0.000961
    12     H       0.021236   0.035116   0.006006
 
 Mode:    33      Frequency (cm-1):     3002.6164     Intensity (km/mol):        6.8488
 Index  Atom      ---- Displacements (x/y/z) ----
     1     C       0.000539   0.000358   0.000169
     2     C       0.001661   0.003172   0.002266
     3     H      -0.019788  -0.035756  -0.017543
     4     C       0.000341   0.000307   0.000144
     5     H      -0.005101  -0.008604  -0.001691
     6     O      -0.000141   0.000102  -0.000027
     7     C      -0.010954   0.010375  -0.045815
     8     H       0.345476  -0.486801   0.042439
     9     H      -0.485150  -0.081122   0.292447
    10     H       0.266878   0.446231   0.199008
    11     F       0.000100  -0.000055   0.000070
    12     H      -0.001802  -0.003752  -0.000740
 
 Mode:    34      Frequency (cm-1):     3084.5647     Intensity (km/mol):       10.2168
 Index  Atom      ---- Displacements (x/y/z) ----
     1     C       0.000165   0.000382  -0.000018
     2     C      -0.001771   0.000478   0.000700
     3     H       0.001771  -0.000936  -0.000612
     4     C       0.000123   0.000034  -0.000078
     5     H      -0.002973  -0.005669  -0.000567
     6     O      -0.000014   0.000003   0.000011
     7     C      -0.082458   0.033042   0.025395
     8     H       0.376438  -0.549496   0.063301
     9     H       0.616335   0.115540  -0.385767
    10     H      -0.001158   0.036735   0.019227
    11     F       0.000493  -0.000014  -0.000292
    12     H      -0.000029  -0.000027   0.000187
 
 Mode:    35      Frequency (cm-1):     3092.1575     Intensity (km/mol):       12.8880
 Index  Atom      ---- Displacements (x/y/z) ----
     1     C      -0.001968  -0.003343  -0.000377
     2     C       0.004427   0.008106   0.003391
     3     H      -0.045928  -0.081515  -0.040655
     4     C       0.000493   0.000129   0.000082
     5     H       0.020277   0.035387   0.004621
     6     O      -0.000074   0.000057  -0.000014
     7     C       0.035692   0.085063   0.007265
     8     H       0.259948  -0.333979   0.037468
     9     H      -0.290961  -0.032339   0.185524
    10     H      -0.396844  -0.651921  -0.309982
    11     F      -0.000158  -0.000229   0.000022
    12     H      -0.002473  -0.003298  -0.000536
 
 Mode:    36      Frequency (cm-1):     3131.3195     Intensity (km/mol):        1.7114
 Index  Atom      ---- Displacements (x/y/z) ----
     1     C       0.039028   0.075148   0.008173
     2     C       0.003127   0.001081   0.001475
     3     H      -0.014799  -0.031221  -0.013127
     4     C      -0.001508   0.001205  -0.000357
     5     H      -0.453689  -0.880136  -0.095771
     6     O      -0.000120   0.000085  -0.000020
     7     C       0.001887   0.002830   0.000795
     8     H       0.002911  -0.003615  -0.000822
     9     H      -0.008926  -0.001120   0.006018
    10     H      -0.018547  -0.029168  -0.015496
    11     F      -0.000310  -0.000061   0.000065
    12     H      -0.005664  -0.010644  -0.001820

PES point character: Geometry corresponds to a local minimum on the PES.




 ============================
 Statistical Thermal Analysis  ***  ideal gas assumed  ***
 ============================
  
 Pressure:                  1.000000 atm.
 Temperature:             298.150000 K



 Moments of Inertia [amu*bohr^2] and principal axis
 ==================================================

         228.6789       1011.3222       1151.0408
 ------------------------------------------------
           0.8386         -0.3588          0.4098
          -0.4941         -0.1843          0.8496
           0.2293          0.9150          0.3319


 The rotational contribution to the molecular entropy includes
 a term, dependent on the symmetry number sigma. The results 
 reported below were computed using sigma = 1, determined from
 the point group symmetry of the input geometry (NOSYM). 
 If this is not the correct symmetry, try symmetrizing the molecule before
 running the calculation (note: linear molecules should be aligned along one
 of the Cartesian axes).
 Contributions from frequencies below 20 1/cm are not included in vibrational sums.
 Their contributions, if any, are reported separately.


     Temp                                                        Transl      Rotat     Vibrat     Total
     ----                                                        ------      -----     ------     -----

     298.15   Entropy (cal/mol-K):                               39.372     27.079     15.982     82.432
              Nuclear Internal Energy (kcal/mol):                 0.889      0.889     58.950     60.728
              Constant Volume Heat Capacity (cal/mol-K):          2.981      2.981     17.470     23.432
          (c) Constant Volume Heat Capacity (cal/mol-K):          2.981      2.981     16.317     22.279

       Summary of energy terms
                                                   hartree              eV         kcal/mol           kJ/mol
                                      --------------------     -----------       ----------      -----------
      Energy from Engine:               -2.388606890636510        -64.9973         -1498.87         -6271.29
      Nuclear Internal Energy:           0.096775964146001          2.6334            60.73           254.09
  (c) Nuclear Internal Energy:           0.096178889966286          2.6172            60.35           252.52
      Internal Energy U:                -2.291830926490509        -62.3639         -1438.15         -6017.20
      pV/n = RT:                         0.000944186013486          0.0257             0.59             2.48
      Enthalpy H:                       -2.290886740477023        -62.3382         -1437.55         -6014.72
      -T*S:                             -0.039166306322335         -1.0658           -24.58          -102.83
  (c) -T*S:                             -0.038647059545189         -1.0516           -24.25          -101.47
      Gibbs free energy:                -2.330053046799358        -63.4040         -1462.13         -6117.55
 
 
 
  (c) The properties marked with this symbol have been corrected using 'low vibrational frequency free rotor
      interpolation corrections'. For those terms all positive frequencies are used (also ones below 20 1/cm),
      but the contribution to the partition function of small vibrational frequencies is modified as described
      in the following paper:
      S. Grimme, 'Supramolecular Binding Thermodynamics by Dispersion-Corrected Density Functional Theory'
      (Chem. Eur. J. 2012, 18, 9955-9964)
      Configuration: Dampener Frequency          :   100.000 1/cm
                     Dampener Alpha              :     4.000
                     Averaging Moment of Inertia : 1.000E-44 kg m2

--------------
Atomic charges
--------------
  Index   Atom    Charge
      1      C    0.2573
      2      C    0.6431
      3      H   -0.2083
      4      C    0.5880
      5      H   -0.1497
      6      O   -0.4688
      7      C    0.6282
      8      H   -0.1865
      9      H   -0.2034
     10      H   -0.1913
     11      F   -0.4468
     12      H   -0.2619


Dipole moment vector    (Debye):     0.94210605   -2.23853254    1.84004016
              magnitude (Debye):     3.04702142


Final PES point is a local minimum. Geometry optimization successful!


AMS application finished. Exiting.
NORMAL TERMINATION
     Total cpu time:   17873.14
  Total system time:      23.27
 Total elapsed time:   17947.91
