

 Parallel Execution: Process Information
 ==============================================================================
 Rank   Node Name                              NodeID   MyNodeRank  NodeMaster
    0   node117                                   0          0          0
    1   node117                                   0          1         -1
    2   node117                                   0          2         -1
    3   node117                                   0          3         -1
 ==============================================================================


May use up to 122928MB of RAM as shared memory on node 0

 *******************************************************************************
 *                                                                             *
 *  --------------------------------                                           *
 *   Amsterdam Modeling Suite (AMS)              2021.102                      *
 *  --------------------------------                                           *
 *                                               r95042 2021-06-07             *
 *                                                                             *
 *                                                                             *
 *                              =================                              *
 *                              |               |                              *
 *                              |     A M S     |                              *
 *                              |               |                              *
 *                              =================                              *
 *                                                                             *
 *                                                                             *
 *   Online information and documentation:  https://www.scm.com/support/       *
 *   E-mail:  support@scm.com   info@scm.com                                   *
 *                                                                             *
 *   Scientific publications using AMS results must be properly referenced     *
 *   See the User Manuals (or the web site) for recommended citations          *
 *   The terms and conditions of the End User License Agreement apply to       *
 *   the use of AMS, https://www.scm.com/license-terms/                        *
 *                                                                             *
 **********************  x86_64_linux_intel / intelmpi  ************************
 
 Licensed to: VU/FEW (+ SARA) / ALGEMEEN / Amsterdam / THE NETHERLANDS
 SCM User ID: u7668
  
 AMS 2021.102  RunTime: Jan27-2022 12:31:54  ShM Nodes: 1  Procs: 4

 AMS jobname: 18.achiral_catalyst.H_Ph_I2.Rsub_cat_complex
 AMS jobid  : 2081186317

 Start   directory: /scistor/tc/yhk800/MasterProject/calculations/achiral_catalyst_H_Ph_I2/18.achiral_catalyst.H_Ph_I2.Rsub_cat_complex/
 Results directory: /scistor/tc/yhk800/MasterProject/calculations/achiral_catalyst_H_Ph_I2/18.achiral_catalyst.H_Ph_I2.Rsub_cat_complex/
 Scratch directory: /scratch/5297/amstmp_18.achiral_catalyst.H_Ph_I2.Rsub_cat_complex_kid0.2081186317/


 Communication costs MPI_COMM_WORLD:      0.127 usec per message,   0.0046 usec per 8-byte item
 Communication costs for intra-node:      1.105 usec per message,   0.0074 usec per 8-byte item

 RNG seed: 519226867 -2119336862 -1606009064 2054406216 93639034 -231332845 -2081770096 320153146



                      ************************************************************************
                      *  ADF 2021.102  RunTime: Jan27-2022 12:31:55  ShM Nodes: 1  Procs: 4  *
                      ************************************************************************
  
       ***************************
       *  GEOMETRY OPTIMIZATION  *
       ***************************

Optimization Method                    Quasi Newton
Optimization Coordinates               Delocalized Coordinates
Optimize lattice                       F
 
 ------------------------------------------------------
 Convergence criteria (Hartree,Angstrom)
 ------------------------------------------------------
 Maximum gradient               0.001000000000
 Maximum rms gradient           0.000666666667
 Maximum step allowed           0.010000000000
 Maximum rms step allowed       0.006666666667
 Maximum energy change allowe   0.000200000000
 Maximum stress energy allowe   0.000500000000
 
Initial model Hessian                  Automatic Hessian
 
------------------------------------
Quasi-Newton Optimizer Parameters
------------------------------------
Hessian Update Method                  BFGS
Maximum number of steps                  250
First GDIIS cycle                          0
Maximum GDIIS vectors                      0
Trust radius (bohr)                        0.200000
Trust radius varies                        T
Constraints converged at all steps         T
Use projector                              T
 
 Rigid motions settings for: old optimizer
 Atomic rotations (x,y,z):     T T T
 Atomic translations (x,y,z):  T T T
 Tolerance:                   1.000000000000000E-006
 
--------
Geometry
--------
Formula: C9H8I2O
Atoms
  Index Symbol   x (angstrom)   y (angstrom)   z (angstrom)
      1      H    -0.62056146    -0.03764738    -0.08023722
      2      C    -0.09659473    -2.02948020    -0.54883449
      3      C     0.18266548    -0.75219647    -0.26512258
      4      C     1.55928918    -0.22013974    -0.18291419
      5      O     1.86635738     0.93365884     0.07180470
      6      H     0.69695300    -2.74612423    -0.73626627
      7      C    -4.19306316    -3.45045331    -0.75693434
      8      C    -3.40647232    -3.74315213     0.36417241
      9      C    -2.08487807    -3.28472070     0.43130916
     10      C    -1.54987465    -2.53359044    -0.62266085
     11      C    -2.33646548    -2.24089162    -1.74376760
     12      C    -3.65805974    -2.69932305    -1.81090435
     13      H    -3.81587125    -4.31793708     1.17069844
     14      H    -1.48295774    -3.50870166     1.28921002
     15      H    -1.92706657    -1.66610667    -2.55029363
     16      H    -4.25998008    -2.47534209    -2.66880521
     17      H    -5.20438242    -3.80125730    -0.80830917
     18      H     2.32514145    -0.94333367    -0.37095895
     19      I     1.85103070     2.46611042     0.80757453
     20      I     1.82606624     4.96220362     2.00601374
 
Total System Charge             0.00000
 
 
----------------
ADF Engine Input
----------------
 
 NumericalQuality VeryGood
 SCF
 Converge 1.0e-6
 Iterations 99
 End
 SYMMETRY NOSYM
 XC
 GGA OLYP
 End
 basis
 core None
 type TZ2P
 End
 

 Title: *** (NO TITLE) ***

Bad geometry: could not add a dihedral for atom   20
 Using automatic Hessian for delocalized coordinates.
 *** GOStep1 ***

 Energy gradients wrt nuclear displacements
 ==========================================

     Atom      Cartesian (a.u./angstrom)
                 X         Y         Z
 ----------------------------------------
     1 H     0.000101  0.002753  0.000190
     2 C     0.062389  0.031082  0.005007
     3 C    -0.042189 -0.061084 -0.012257
     4 C     0.105463  0.137637  0.038523
     5 O    -0.047754  0.382806  0.190891
     6 H    -0.004994  0.005707 -0.001568
     7 C    -0.025043 -0.008909 -0.000556
     8 C    -0.010894 -0.016490  0.022839
     9 C     0.018023  0.002576  0.018585
    10 C    -0.050827 -0.012951 -0.000435
    11 C     0.016247  0.011861 -0.015456
    12 C    -0.015461  0.007331 -0.024874
    13 H     0.007074  0.010297 -0.015878
    14 H    -0.010907  0.004210 -0.016038
    15 H    -0.007526 -0.010180  0.014829
    16 H     0.010646 -0.004695  0.016611
    17 H     0.019095  0.006693  0.001041
    18 H    -0.035948  0.017641  0.007486
    19 I     0.013804 -0.468141 -0.206184
    20 I    -0.001298 -0.038146 -0.022756
 ----------------------------------------
 Mulliken charges used for AMS results%charges...
 
----------------------------------------------------------------------
Geometry Convergence after Step   1       (Hartree/Angstrom,Angstrom)
----------------------------------------------------------------------
current energy                               -4.05194644 Hartree
energy change                      -4.05194644     0.00020000    F
constrained gradient max            0.46815383     0.00100000    F
constrained gradient rms            0.09142592     0.00066667    F
gradient max                        0.46815383
gradient rms                        0.09142592
cart. step max                      0.09112772     0.01000000    F
cart. step rms                      0.02039371     0.00666667    F
 
 
--------
Geometry
--------
Formula: C9H8I2O
Atoms
  Index Symbol   x (angstrom)   y (angstrom)   z (angstrom)
      1      H    -0.61641588    -0.03982713    -0.08811978
      2      C    -0.10773648    -2.04156788    -0.55316616
      3      C     0.18092775    -0.76070863    -0.27195720
      4      C     1.55585547    -0.24590730    -0.19382766
      5      O     1.87435006     0.92873204     0.06291494
      6      H     0.68393545    -2.76268265    -0.73899089
      7      C    -4.19551024    -3.45621474    -0.75789716
      8      C    -3.40935462    -3.74717917     0.36223555
      9      C    -2.08865907    -3.29059829     0.42871259
     10      C    -1.55277507    -2.54146577    -0.62607308
     11      C    -2.34007095    -2.25059240    -1.74698974
     12      C    -3.66068779    -2.70814212    -1.81212841
     13      H    -3.82016834    -4.32210688     1.17285338
     14      H    -1.48518584    -3.51468385     1.29003915
     15      H    -1.92972157    -1.67565456    -2.55764876
     16      H    -4.26466839    -2.48435586    -2.67325487
     17      H    -5.21062271    -3.80752888    -0.80844675
     18      H     2.32479226    -0.97654299    -0.38122319
     19      I     1.86703772     2.55527084     0.83623432
     20      I     1.86595401     5.05333134     2.05150787
 
Total System Charge             0.00000
 
 *** GOStep2 ***

 Energy gradients wrt nuclear displacements
 ==========================================

     Atom      Cartesian (a.u./angstrom)
                 X         Y         Z
 ----------------------------------------
     1 H    -0.000075  0.002545  0.000068
     2 C     0.053646  0.021972  0.003246
     3 C    -0.034861 -0.047371 -0.008665
     4 C     0.076720  0.061309  0.017430
     5 O    -0.028328  0.279178  0.129422
     6 H    -0.004466  0.004255 -0.002062
     7 C    -0.018409 -0.006563 -0.000290
     8 C    -0.008246 -0.012497  0.017179
     9 C     0.013931  0.003530  0.014120
    10 C    -0.045520 -0.011837 -0.000416
    11 C     0.013333  0.008461 -0.011538
    12 C    -0.011685  0.005653 -0.018810
    13 H     0.005244  0.007622 -0.012162
    14 H    -0.008214  0.003124 -0.012132
    15 H    -0.005740 -0.007630  0.011169
    16 H     0.007901 -0.003618  0.012624
    17 H     0.014397  0.005047  0.000766
    18 H    -0.029362  0.011265  0.005207
    19 I     0.011410 -0.299907 -0.129624
    20 I    -0.001676 -0.024540 -0.015532
 ----------------------------------------
 Mulliken charges used for AMS results%charges...

 dE(predicted):    -0.51245E-01, dE(actual):    -0.49415E-01, Trust radius:    0.400000, all in a.u.
 
----------------------------------------------------------------------
Geometry Convergence after Step   2       (Hartree/Angstrom,Angstrom)
----------------------------------------------------------------------
current energy                               -4.10136162 Hartree
energy change                      -0.04941518     0.00020000    F
constrained gradient max            0.29991657     0.00100000    F
constrained gradient rms            0.06146834     0.00066667    F
gradient max                        0.29991688
gradient rms                        0.06146834
cart. step max                      0.12165120     0.01000000    F
cart. step rms                      0.03467858     0.00666667    F
 
 
--------
Geometry
--------
Formula: C9H8I2O
Atoms
  Index Symbol   x (angstrom)   y (angstrom)   z (angstrom)
      1      H    -0.59857645     0.01030362    -0.13136231
      2      C    -0.14686461    -2.03179176    -0.52984798
      3      C     0.17445140    -0.74113457    -0.28545657
      4      C     1.54816411    -0.30270406    -0.21571016
      5      O     1.89749838     0.86996702     0.00666059
      6      H     0.64520570    -2.76713646    -0.67800842
      7      C    -4.18915538    -3.47506336    -0.76770661
      8      C    -3.40342923    -3.77139363     0.34705909
      9      C    -2.08926669    -3.30915255     0.42294786
     10      C    -1.55600034    -2.53232788    -0.61428486
     11      C    -2.34722225    -2.23749593    -1.73230971
     12      C    -3.65833170    -2.71047529    -1.80685681
     13      H    -3.81350375    -4.36317869     1.15925759
     14      H    -1.48285303    -3.54283172     1.29193660
     15      H    -1.93910682    -1.64226908    -2.54221924
     16      H    -4.26556841    -2.47851734    -2.67604968
     17      H    -5.21020818    -3.83848502    -0.82591280
     18      H     2.33034071    -1.05656545    -0.36479978
     19      I     1.84485828     2.67692204     0.82321742
     20      I     1.93084404     5.15490525     2.11421993
 
Total System Charge             0.00000
 
 *** GOStep3 ***

 Energy gradients wrt nuclear displacements
 ==========================================

     Atom      Cartesian (a.u./angstrom)
                 X         Y         Z
 ----------------------------------------
     1 H    -0.000409  0.001114 -0.000066
     2 C     0.024465  0.004508  0.000438
     3 C    -0.006690 -0.003242  0.001285
     4 C     0.028945  0.017517  0.004021
     5 O    -0.029175  0.134842  0.064011
     6 H    -0.002788  0.000613 -0.003915
     7 C    -0.001999 -0.000925  0.000262
     8 C    -0.001912 -0.001866  0.002085
     9 C     0.003587  0.004561  0.002688
    10 C    -0.022149 -0.006319  0.000311
    11 C     0.005733 -0.000665 -0.002135
    12 C    -0.001878  0.000826 -0.002645
    13 H     0.000574  0.001106 -0.002166
    14 H    -0.001365  0.000493 -0.001935
    15 H    -0.001078 -0.001212  0.001605
    16 H     0.000927 -0.000657  0.002247
    17 H     0.002135  0.000786  0.000118
    18 H    -0.007197  0.003877  0.002349
    19 I     0.010018 -0.149730 -0.064889
    20 I     0.000255 -0.005626 -0.003670
 ----------------------------------------
 Mulliken charges used for AMS results%charges...

 dE(predicted):    -0.37329E-01, dE(actual):    -0.50360E-01, Trust radius:    0.800000, all in a.u.
 
----------------------------------------------------------------------
Geometry Convergence after Step   3       (Hartree/Angstrom,Angstrom)
----------------------------------------------------------------------
current energy                               -4.15172121 Hartree
energy change                      -0.05035959     0.00020000    F
constrained gradient max            0.14973206     0.00100000    F
constrained gradient rms            0.02958209     0.00066667    F
gradient max                        0.14973181
gradient rms                        0.02958209
cart. step max                      0.20075601     0.01000000    F
cart. step rms                      0.07979997     0.00666667    F
 
 
--------
Geometry
--------
Formula: C9H8I2O
Atoms
  Index Symbol   x (angstrom)   y (angstrom)   z (angstrom)
      1      H    -0.54854083     0.02571207    -0.17232440
      2      C    -0.15816683    -2.04857897    -0.46170450
      3      C     0.20059926    -0.75741843    -0.26869681
      4      C     1.58229353    -0.36975701    -0.19116354
      5      O     1.97985054     0.79769098    -0.02454668
      6      H     0.62635075    -2.80476890    -0.54383058
      7      C    -4.19139589    -3.46003539    -0.79037863
      8      C    -3.39457051    -3.85485607     0.28473350
      9      C    -2.08096477    -3.40075959     0.39028872
     10      C    -1.55428444    -2.52822891    -0.57421003
     11      C    -2.36170053    -2.13252289    -1.65074683
     12      C    -3.67059952    -2.60232560    -1.75837681
     13      H    -3.79592922    -4.52069181     1.04608774
     14      H    -1.46510869    -3.71611603     1.22975724
     15      H    -1.96161058    -1.46309091    -2.40854266
     16      H    -4.28475705    -2.29381061    -2.60201613
     17      H    -5.21451939    -3.82077417    -0.87338544
     18      H     2.34856815    -1.15946024    -0.28138565
     19      I     1.84636844     2.74244361     0.73175172
     20      I     1.76939333     5.27892402     1.91346392
 
Total System Charge             0.00000
 
 *** GOStep4 ***

 Energy gradients wrt nuclear displacements
 ==========================================

     Atom      Cartesian (a.u./angstrom)
                 X         Y         Z
 ----------------------------------------
     1 H    -0.000126 -0.000027 -0.000334
     2 C     0.008868  0.001507 -0.000506
     3 C     0.003616  0.002666  0.004823
     4 C     0.008202  0.000702 -0.000335
     5 O    -0.028433  0.099038  0.039191
     6 H    -0.000776  0.000111 -0.005330
     7 C     0.001754  0.000437  0.000444
     8 C    -0.000849  0.000498 -0.002417
     9 C     0.000061  0.006414  0.001317
    10 C    -0.009403 -0.003082  0.000637
    11 C     0.003873 -0.004050 -0.000377
    12 C     0.000181 -0.001145  0.001505
    13 H    -0.000445 -0.000808  0.000521
    14 H     0.000422 -0.000259  0.000651
    15 H     0.000075  0.000912 -0.000679
    16 H    -0.000768  0.000230 -0.000707
    17 H    -0.001062 -0.000248 -0.000049
    18 H     0.000174  0.001482  0.001662
    19 I     0.015384 -0.105150 -0.040486
    20 I    -0.000749  0.000769  0.000467
 ----------------------------------------
 Mulliken charges used for AMS results%charges...

 dE(predicted):    -0.17033E-01, dE(actual):    -0.17648E-01, Trust radius:    0.800000, all in a.u.
 
----------------------------------------------------------------------
Geometry Convergence after Step   4       (Hartree/Angstrom,Angstrom)
----------------------------------------------------------------------
current energy                               -4.16936886 Hartree
energy change                      -0.01764765     0.00020000    F
constrained gradient max            0.10514673     0.00100000    F
constrained gradient rms            0.02061766     0.00066667    F
gradient max                        0.10514731
gradient rms                        0.02061766
cart. step max                      0.18880493     0.01000000    F
cart. step rms                      0.06715713     0.00666667    F
 
 
--------
Geometry
--------
Formula: C9H8I2O
Atoms
  Index Symbol   x (angstrom)   y (angstrom)   z (angstrom)
      1      H    -0.50322133     0.02838354    -0.22513259
      2      C    -0.15796824    -2.06634463    -0.41960666
      3      C     0.22715858    -0.77646067    -0.26703906
      4      C     1.61551234    -0.42415138    -0.15453081
      5      O     2.04654418     0.73355549    -0.02537146
      6      H     0.61826490    -2.83604202    -0.44774862
      7      C    -4.19355113    -3.43447957    -0.79957020
      8      C    -3.38277938    -3.91217039     0.23113024
      9      C    -2.06557740    -3.47505596     0.34877015
     10      C    -1.54708057    -2.53021288    -0.55264156
     11      C    -2.37099064    -2.05254360    -1.58466585
     12      C    -3.68259078    -2.50857388    -1.70833070
     13      H    -3.77585566    -4.63178551     0.94739715
     14      H    -1.43907449    -3.85619070     1.15324877
     15      H    -1.97832796    -1.32988009    -2.29681845
     16      H    -4.30657416    -2.13544201    -2.51876543
     17      H    -5.21974853    -3.78499086    -0.89466510
     18      H     2.36196653    -1.24170058    -0.18104010
     19      I     1.79309763     2.78044354     0.66549543
     20      I     1.63207185     5.36521732     1.72465899
 
Total System Charge             0.00000
 
 *** GOStep5 ***

 Energy gradients wrt nuclear displacements
 ==========================================

     Atom      Cartesian (a.u./angstrom)
                 X         Y         Z
 ----------------------------------------
     1 H    -0.000189 -0.000444 -0.000562
     2 C     0.000624  0.000403 -0.000993
     3 C     0.006706  0.004154  0.005171
     4 C     0.002505 -0.002116  0.000215
     5 O    -0.028042  0.074370  0.024035
     6 H     0.000580 -0.000039 -0.006553
     7 C     0.002320  0.000676  0.000144
     8 C    -0.000286  0.001466 -0.002721
     9 C    -0.001498  0.005851  0.001465
    10 C    -0.002541 -0.001175  0.002014
    11 C     0.003243 -0.005153 -0.001285
    12 C     0.000365 -0.001844  0.002301
    13 H    -0.000536 -0.001303  0.001171
    14 H     0.000745 -0.000530  0.001269
    15 H     0.000360  0.001572 -0.000928
    16 H    -0.001057  0.000786 -0.001259
    17 H    -0.001679 -0.000511 -0.000139
    18 H     0.002592  0.000476  0.001871
    19 I     0.016055 -0.080534 -0.026973
    20 I    -0.000266  0.003895  0.001755
 ----------------------------------------
 Mulliken charges used for AMS results%charges...

 dE(predicted):    -0.18967E-01, dE(actual):    -0.10633E-01, Trust radius:    0.800000, all in a.u.
 
----------------------------------------------------------------------
Geometry Convergence after Step   5       (Hartree/Angstrom,Angstrom)
----------------------------------------------------------------------
current energy                               -4.18000143 Hartree
energy change                      -0.01063257     0.00020000    F
constrained gradient max            0.08054045     0.00100000    F
constrained gradient rms            0.01563598     0.00066667    F
gradient max                        0.08054044
gradient rms                        0.01563598
cart. step max                      0.20773273     0.01000000    F
cart. step rms                      0.05730523     0.00666667    F
 
 
--------
Geometry
--------
Formula: C9H8I2O
Atoms
  Index Symbol   x (angstrom)   y (angstrom)   z (angstrom)
      1      H    -0.44866658     0.02452329    -0.26224250
      2      C    -0.14949152    -2.08423726    -0.38673887
      3      C     0.26220655    -0.79844869    -0.26798163
      4      C     1.65835271    -0.47618340    -0.14095113
      5      O     2.12012438     0.66973213    -0.03419180
      6      H     0.61335800    -2.86769854    -0.36620382
      7      C    -4.19506449    -3.39731239    -0.79962479
      8      C    -3.37580706    -3.93872038     0.19277371
      9      C    -2.05398401    -3.52032344     0.31672064
     10      C    -1.53729700    -2.52805456    -0.53564314
     11      C    -2.37154754    -1.98751691    -1.52952418
     12      C    -3.68718818    -2.42670605    -1.66290002
     13      H    -3.76603147    -4.69425704     0.87247141
     14      H    -1.42067848    -3.95153478     1.09001906
     15      H    -1.98049664    -1.23175922    -2.20711733
     16      H    -4.31659196    -2.00646715    -2.44543127
     17      H    -5.22487852    -3.73464837    -0.90164890
     18      H     2.38130438    -1.31695551    -0.13031962
     19      I     1.73931406     2.78825595     0.61238564
     20      I     1.42433912     5.38988748     1.58092269
 
Total System Charge             0.00000
 
 *** GOStep6 ***

 Energy gradients wrt nuclear displacements
 ==========================================

     Atom      Cartesian (a.u./angstrom)
                 X         Y         Z
 ----------------------------------------
     1 H    -0.000344 -0.000483 -0.000240
     2 C    -0.003313 -0.000513 -0.001179
     3 C     0.006598  0.003614  0.005372
     4 C     0.001199 -0.002464 -0.000997
     5 O    -0.026713  0.057158  0.015784
     6 H     0.001344 -0.000164 -0.006153
     7 C     0.001993  0.000811 -0.000049
     8 C     0.000231  0.001524 -0.002299
     9 C    -0.002039  0.005118  0.002191
    10 C     0.001144  0.000087  0.001796
    11 C     0.002214 -0.004850 -0.002021
    12 C     0.000223 -0.002004  0.001928
    13 H    -0.000376 -0.001244  0.001116
    14 H     0.000692 -0.000579  0.001226
    15 H     0.000425  0.001498 -0.000715
    16 H    -0.000884  0.000841 -0.001204
    17 H    -0.001526 -0.000452 -0.000126
    18 H     0.002979 -0.000036  0.002269
    19 I     0.016926 -0.063044 -0.018763
    20 I    -0.000772  0.005183  0.002064
 ----------------------------------------
 Mulliken charges used for AMS results%charges...
 Rebuilding optimization coordinates
Bad geometry: could not add a dihedral for atom   20

 dE(predicted):    -0.16405E-01, dE(actual):    -0.74229E-02, Trust radius:    0.800000, all in a.u.
 
----------------------------------------------------------------------
Geometry Convergence after Step   6       (Hartree/Angstrom,Angstrom)
----------------------------------------------------------------------
current energy                               -4.18742437 Hartree
energy change                      -0.00742294     0.00020000    F
constrained gradient max            0.06305445     0.00100000    F
constrained gradient rms            0.01234324     0.00066667    F
gradient max                        0.06305453
gradient rms                        0.01234324
cart. step max                      0.21117237     0.01000000    F
cart. step rms                      0.06025172     0.00666667    F
 
 
--------
Geometry
--------
Formula: C9H8I2O
Atoms
  Index Symbol   x (angstrom)   y (angstrom)   z (angstrom)
      1      H    -0.39216752     0.01770077    -0.28878631
      2      C    -0.13775639    -2.10112318    -0.35974226
      3      C     0.29881075    -0.82141588    -0.26132617
      4      C     1.70093666    -0.52787949    -0.10923219
      5      O     2.19123604     0.60604458    -0.02344412
      6      H     0.61031740    -2.89703309    -0.30697179
      7      C    -4.19542032    -3.35798565    -0.79797147
      8      C    -3.36704807    -3.96371676     0.14907237
      9      C    -2.04056963    -3.56353469     0.27738948
     10      C    -1.52673847    -2.52463675    -0.52129226
     11      C    -2.37117870    -1.92144509    -1.47091772
     12      C    -3.69151202    -2.34204224    -1.61068447
     13      H    -3.75405555    -4.75524845     0.78793355
     14      H    -1.39969673    -4.04458763     1.01394339
     15      H    -1.98286308    -1.13204208    -2.11012173
     16      H    -4.32783837    -1.87329698    -2.35887887
     17      H    -5.22893173    -3.68128801    -0.90514596
     18      H     2.39940094    -1.38919120    -0.06819543
     19      I     1.67318382     2.78516877     0.55252687
     20      I     1.21316675     5.39912818     1.40661923
 
Total System Charge             0.00000
 
 *** GOStep7 ***

 Energy gradients wrt nuclear displacements
 ==========================================

     Atom      Cartesian (a.u./angstrom)
                 X         Y         Z
 ----------------------------------------
     1 H    -0.000433 -0.000379 -0.000588
     2 C    -0.004758 -0.000967 -0.001435
     3 C     0.005379  0.002917  0.004607
     4 C     0.001104 -0.001757  0.001623
     5 O    -0.023999  0.044046  0.008620
     6 H     0.001697 -0.000160 -0.006318
     7 C     0.001550  0.000760 -0.000257
     8 C     0.000504  0.001299 -0.001615
     9 C    -0.002399  0.004078  0.002709
    10 C     0.002703  0.000898  0.002265
    11 C     0.001779 -0.004370 -0.002788
    12 C     0.000056 -0.001816  0.001526
    13 H    -0.000256 -0.001025  0.000895
    14 H     0.000534 -0.000525  0.000992
    15 H     0.000467  0.001332 -0.000350
    16 H    -0.000643  0.000792 -0.000919
    17 H    -0.001204 -0.000359 -0.000091
    18 H     0.002713 -0.000337  0.001627
    19 I     0.016151 -0.049831 -0.012406
    20 I    -0.000945  0.005405  0.001904
 ----------------------------------------
 Mulliken charges used for AMS results%charges...

 dE(predicted):    -0.13738E-01, dE(actual):    -0.55925E-02, Trust radius:    0.800000, all in a.u.
 
----------------------------------------------------------------------
Geometry Convergence after Step   7       (Hartree/Angstrom,Angstrom)
----------------------------------------------------------------------
current energy                               -4.19301686 Hartree
energy change                      -0.00559249     0.00020000    F
constrained gradient max            0.04983464     0.00100000    F
constrained gradient rms            0.00979973     0.00066667    F
gradient max                        0.04983466
gradient rms                        0.00979973
cart. step max                      0.19056359     0.01000000    F
cart. step rms                      0.05890977     0.00666667    F
 
 
--------
Geometry
--------
Formula: C9H8I2O
Atoms
  Index Symbol   x (angstrom)   y (angstrom)   z (angstrom)
      1      H    -0.34368571     0.01108438    -0.30188249
      2      C    -0.12810722    -2.11442445    -0.33111127
      3      C     0.32967902    -0.84074543    -0.24752130
      4      C     1.73556591    -0.57130486    -0.07317283
      5      O     2.24948699     0.55163993    -0.00073456
      6      H     0.60631294    -2.92040084    -0.24954971
      7      C    -4.19436175    -3.32413990    -0.79898882
      8      C    -3.35719216    -3.99135186     0.09796111
      9      C    -2.02733648    -3.60603051     0.23239049
     10      C    -1.51762515    -2.52069338    -0.50638399
     11      C    -2.37167257    -1.85743072    -1.40724713
     12      C    -3.69540247    -2.26252276    -1.55501156
     13      H    -3.74017839    -4.81924009     0.69121985
     14      H    -1.37918514    -4.13474300     0.92868018
     15      H    -1.98694297    -1.03388193    -2.00376251
     16      H    -4.33842610    -1.74714598    -2.26559011
     17      H    -5.23060757    -3.63578243    -0.91257705
     18      H     2.41264832    -1.44869220    -0.00512531
     19      I     1.61514407     2.77742639     0.48712554
     20      I     1.03316219     5.39995476     1.21605564
 
Total System Charge             0.00000
 
 *** GOStep8 ***

 Energy gradients wrt nuclear displacements
 ==========================================

     Atom      Cartesian (a.u./angstrom)
                 X         Y         Z
 ----------------------------------------
     1 H    -0.000604 -0.000313 -0.000767
     2 C    -0.005399 -0.000922 -0.001696
     3 C     0.004113  0.002215  0.004073
     4 C     0.001083 -0.000380  0.002856
     5 O    -0.021044  0.034468  0.004135
     6 H     0.002023 -0.000225 -0.006022
     7 C     0.001294  0.000895 -0.000455
     8 C     0.000753  0.001279 -0.001141
     9 C    -0.002497  0.003110  0.002853
    10 C     0.003388  0.001408  0.002487
    11 C     0.001592 -0.003784 -0.003041
    12 C    -0.000219 -0.001905  0.001368
    13 H    -0.000164 -0.000897  0.000775
    14 H     0.000466 -0.000525  0.000848
    15 H     0.000647  0.001233 -0.000089
    16 H    -0.000475  0.000752 -0.000745
    17 H    -0.000990 -0.000319 -0.000073
    18 H     0.002569 -0.000637  0.001297
    19 I     0.014481 -0.040788 -0.008349
    20 I    -0.001015  0.005336  0.001686
 ----------------------------------------
 Mulliken charges used for AMS results%charges...

 dE(predicted):    -0.10300E-01, dE(actual):    -0.39274E-02, Trust radius:    0.800000, all in a.u.
 
----------------------------------------------------------------------
Geometry Convergence after Step   8       (Hartree/Angstrom,Angstrom)
----------------------------------------------------------------------
current energy                               -4.19694431 Hartree
energy change                      -0.00392745     0.00020000    F
constrained gradient max            0.04080365     0.00100000    F
constrained gradient rms            0.00800290     0.00066667    F
gradient max                        0.04080365
gradient rms                        0.00800290
cart. step max                      0.19272052     0.01000000    F
cart. step rms                      0.05815663     0.00666667    F
 
 
--------
Geometry
--------
Formula: C9H8I2O
Atoms
  Index Symbol   x (angstrom)   y (angstrom)   z (angstrom)
      1      H    -0.29143838     0.01057529    -0.30729819
      2      C    -0.12048778    -2.12126093    -0.30036674
      3      C     0.36161573    -0.85506983    -0.23257467
      4      C     1.77209734    -0.61316665    -0.04379803
      5      O     2.31270419     0.49661680     0.02514745
      6      H     0.59713796    -2.93792222    -0.18652011
      7      C    -4.19252289    -3.29393939    -0.80122988
      8      C    -3.34656161    -4.01529963     0.04413720
      9      C    -2.01512633    -3.63913118     0.18641974
     10      C    -1.51096201    -2.51090078    -0.49055905
     11      C    -2.37476193    -1.79495120    -1.34182777
     12      C    -3.70012234    -2.18915689    -1.49839938
     13      H    -3.72409564    -4.87767798     0.58934727
     14      H    -1.35953768    -4.20954287     0.84134778
     15      H    -1.99548424    -0.94024817    -1.89590232
     16      H    -4.35005066    -1.63320369    -2.17069689
     17      H    -5.23009956    -3.59755332    -0.92229332
     18      H     2.42340266    -1.50769861     0.05160691
     19      I     1.56661480     2.76269498     0.42489904
     20      I     0.84895414     5.37841141     1.02333512
 
Total System Charge             0.00000
 
 *** GOStep9 ***

 Energy gradients wrt nuclear displacements
 ==========================================

     Atom      Cartesian (a.u./angstrom)
                 X         Y         Z
 ----------------------------------------
     1 H    -0.000633 -0.000225 -0.000290
     2 C    -0.005062 -0.001216 -0.001618
     3 C     0.002948  0.001741  0.004147
     4 C     0.001019  0.000242  0.000145
     5 O    -0.017007  0.026921  0.002163
     6 H     0.001873 -0.000219 -0.004897
     7 C     0.000928  0.000927 -0.000465
     8 C     0.000818  0.001029 -0.000788
     9 C    -0.002231  0.002313  0.002838
    10 C     0.003386  0.001577  0.001932
    11 C     0.000962 -0.002966 -0.003023
    12 C    -0.000342 -0.001668  0.000997
    13 H    -0.000098 -0.000696  0.000565
    14 H     0.000365 -0.000433  0.000612
    15 H     0.000654  0.000860  0.000000
    16 H    -0.000333  0.000581 -0.000569
    17 H    -0.000728 -0.000274 -0.000051
    18 H     0.001926 -0.000663  0.001992
    19 I     0.012809 -0.032663 -0.004939
    20 I    -0.001255  0.004834  0.001247
 ----------------------------------------
 Mulliken charges used for AMS results%charges...

 dE(predicted):    -0.85713E-02, dE(actual):    -0.33242E-02, Trust radius:    0.800000, all in a.u.
 
----------------------------------------------------------------------
Geometry Convergence after Step   9       (Hartree/Angstrom,Angstrom)
----------------------------------------------------------------------
current energy                               -4.20026854 Hartree
energy change                      -0.00332423     0.00020000    F
constrained gradient max            0.03267219     0.00100000    F
constrained gradient rms            0.00640779     0.00066667    F
gradient max                        0.03267223
gradient rms                        0.00640779
cart. step max                      0.20044201     0.01000000    F
cart. step rms                      0.05480714     0.00666667    F
 
 
--------
Geometry
--------
Formula: C9H8I2O
Atoms
  Index Symbol   x (angstrom)   y (angstrom)   z (angstrom)
      1      H    -0.25217875     0.00891664    -0.30285732
      2      C    -0.11507483    -2.12671751    -0.27171131
      3      C     0.38434005    -0.86671092    -0.20830791
      4      C     1.79578296    -0.64528953     0.00359543
      5      O     2.35727614     0.45420216     0.06010718
      6      H     0.58986238    -2.95135573    -0.14032471
      7      C    -4.18992260    -3.27182206    -0.80628523
      8      C    -3.33480125    -4.04225841    -0.01523578
      9      C    -2.00269192    -3.67233099     0.13619305
     10      C    -1.50580659    -2.50395503    -0.47588330
     11      C    -2.37954446    -1.73976353    -1.27442891
     12      C    -3.70566070    -2.12557504    -1.44034226
     13      H    -3.70583879    -4.93718030     0.47925720
     14      H    -1.33950387    -4.28017926     0.74818123
     15      H    -2.00785180    -0.85314590    -1.78097961
     16      H    -4.36334326    -1.53136639    -2.07077650
     17      H    -5.22828955    -3.56897708    -0.93510959
     18      H     2.42875891    -1.55202935     0.10817641
     19      I     1.52798588     2.75337274     0.35861296
     20      I     0.71777779     5.36374062     0.82289311
 
Total System Charge             0.00000
 
 *** GOStep10 ***

 Energy gradients wrt nuclear displacements
 ==========================================

     Atom      Cartesian (a.u./angstrom)
                 X         Y         Z
 ----------------------------------------
     1 H    -0.000585 -0.000163 -0.000595
     2 C    -0.004459 -0.001187 -0.001620
     3 C     0.002275  0.001484  0.002467
     4 C    -0.000045  0.000887  0.004804
     5 O    -0.013312  0.021542 -0.001058
     6 H     0.001733 -0.000205 -0.004672
     7 C     0.000659  0.000908 -0.000478
     8 C     0.000861  0.000757 -0.000445
     9 C    -0.002124  0.001587  0.002704
    10 C     0.003123  0.001564  0.002199
    11 C     0.000798 -0.002304 -0.002964
    12 C    -0.000315 -0.001453  0.000729
    13 H    -0.000068 -0.000554  0.000419
    14 H     0.000280 -0.000362  0.000454
    15 H     0.000690  0.000706  0.000144
    16 H    -0.000230  0.000485 -0.000391
    17 H    -0.000537 -0.000226 -0.000026
    18 H     0.001705 -0.000636  0.000301
    19 I     0.010769 -0.027049 -0.002912
    20 I    -0.001219  0.004219  0.000939
 ----------------------------------------
 Mulliken charges used for AMS results%charges...

 dE(predicted):    -0.65661E-02, dE(actual):    -0.22069E-02, Trust radius:    0.800000, all in a.u.
 
----------------------------------------------------------------------
Geometry Convergence after Step  10       (Hartree/Angstrom,Angstrom)
----------------------------------------------------------------------
current energy                               -4.20247540 Hartree
energy change                      -0.00220686     0.00020000    F
constrained gradient max            0.02706268     0.00100000    F
constrained gradient rms            0.00526538     0.00066667    F
gradient max                        0.02706276
gradient rms                        0.00526538
cart. step max                      0.19869889     0.01000000    F
cart. step rms                      0.05462108     0.00666667    F
 
 
--------
Geometry
--------
Formula: C9H8I2O
Atoms
  Index Symbol   x (angstrom)   y (angstrom)   z (angstrom)
      1      H    -0.20986977     0.01158815    -0.30258213
      2      C    -0.11167190    -2.12748075    -0.24131188
      3      C     0.40800893    -0.87482859    -0.19055425
      4      C     1.82217212    -0.67676378     0.03180651
      5      O     2.40421307     0.41082211     0.09974305
      6      H     0.57781761    -2.95984208    -0.08240226
      7      C    -4.18691868    -3.25262108    -0.81207072
      8      C    -3.32146341    -4.06615951    -0.07771998
      9      C    -1.98970478    -3.69905440     0.08358009
     10      C    -1.50231286    -2.49331684    -0.46066126
     11      C    -2.38731168    -1.68664838    -1.20432902
     12      C    -3.71300917    -2.06739217    -1.38009646
     13      H    -3.68411426    -4.99159935     0.36350969
     14      H    -1.31791760    -4.33972817     0.65083057
     15      H    -2.02551512    -0.77024913    -1.66206341
     16      H    -4.37932747    -1.43977672    -1.96728009
     17      H    -5.22514663    -3.54590411    -0.94942045
     18      H     2.42906363    -1.59596688     0.17548774
     19      I     1.49254171     2.74088760     0.29611418
     20      I     0.59174202     5.33560923     0.62419422
 
Total System Charge             0.00000
 
 *** GOStep11 ***

 Energy gradients wrt nuclear displacements
 ==========================================

     Atom      Cartesian (a.u./angstrom)
                 X         Y         Z
 ----------------------------------------
     1 H    -0.000563 -0.000086 -0.000002
     2 C    -0.003450 -0.001052 -0.001114
     3 C     0.001116  0.001194  0.004280
     4 C     0.000647  0.001214 -0.004169
     5 O    -0.009718  0.016608  0.000800
     6 H     0.001298 -0.000156 -0.003282
     7 C     0.000399  0.000734 -0.000397
     8 C     0.000691  0.000634 -0.000119
     9 C    -0.001497  0.000961  0.002269
    10 C     0.002584  0.001418  0.001182
    11 C     0.000375 -0.001654 -0.002588
    12 C    -0.000283 -0.001058  0.000489
    13 H    -0.000040 -0.000371  0.000263
    14 H     0.000212 -0.000264  0.000270
    15 H     0.000636  0.000434  0.000120
    16 H    -0.000136  0.000317 -0.000269
    17 H    -0.000336 -0.000195 -0.000038
    18 H     0.000709 -0.000322  0.002943
    19 I     0.008462 -0.021806 -0.001222
    20 I    -0.001106  0.003449  0.000582
 ----------------------------------------
 Mulliken charges used for AMS results%charges...

 dE(predicted):    -0.52357E-02, dE(actual):    -0.19349E-02, Trust radius:    0.800000, all in a.u.
 
----------------------------------------------------------------------
Geometry Convergence after Step  11       (Hartree/Angstrom,Angstrom)
----------------------------------------------------------------------
current energy                               -4.20441029 Hartree
energy change                      -0.00193489     0.00020000    F
constrained gradient max            0.02181908     0.00100000    F
constrained gradient rms            0.00416743     0.00066667    F
gradient max                        0.02181915
gradient rms                        0.00416743
cart. step max                      0.20825546     0.01000000    F
cart. step rms                      0.05354406     0.00666667    F
 
 
--------
Geometry
--------
Formula: C9H8I2O
Atoms
  Index Symbol   x (angstrom)   y (angstrom)   z (angstrom)
      1      H    -0.18126297     0.01625752    -0.28813948
      2      C    -0.11318352    -2.12522844    -0.21016055
      3      C     0.42094276    -0.87834815    -0.16017965
      4      C     1.83412524    -0.69859364     0.08691009
      5      O     2.43705191     0.37788327     0.14366026
      6      H     0.56468799    -2.96318572    -0.03352450
      7      C    -4.18396973    -3.24479070    -0.82250581
      8      C    -3.30562319    -4.09559343    -0.14852439
      9      C    -1.97630954    -3.72577938     0.02656697
     10      C    -1.50271416    -2.48390731    -0.44431088
     11      C    -2.40140462    -1.64040173    -1.12947967
     12      C    -3.72483191    -2.02120474    -1.31790094
     13      H    -3.65638509    -5.05085267     0.23455883
     14      H    -1.29408070    -4.39465125     0.54665042
     15      H    -2.05308443    -0.69414106    -1.53311136
     16      H    -4.40175319    -1.36428348    -1.85881789
     17      H    -5.22066236    -3.53799559    -0.97040602
     18      H     2.42440826    -1.62883870     0.22926892
     19      I     1.47999759     2.74086973     0.22828103
     20      I     0.52532739     5.32436061     0.41593877
 
Total System Charge             0.00000
 
 *** GOStep12 ***

 Energy gradients wrt nuclear displacements
 ==========================================

     Atom      Cartesian (a.u./angstrom)
                 X         Y         Z
 ----------------------------------------
     1 H    -0.000451 -0.000069  0.000030
     2 C    -0.002622 -0.001137 -0.001606
     3 C     0.000961  0.000818  0.001719
     4 C    -0.001545  0.001884  0.002317
     5 O    -0.005779  0.013119 -0.001763
     6 H     0.000985 -0.000116 -0.002605
     7 C     0.000218  0.000631 -0.000227
     8 C     0.000645  0.000303 -0.000019
     9 C    -0.001205  0.000473  0.001922
    10 C     0.002133  0.001342  0.001512
    11 C     0.000067 -0.001001 -0.002154
    12 C    -0.000240 -0.000709  0.000269
    13 H    -0.000037 -0.000234  0.000149
    14 H     0.000158 -0.000180  0.000146
    15 H     0.000594  0.000189  0.000044
    16 H    -0.000067  0.000169 -0.000207
    17 H    -0.000195 -0.000161 -0.000034
    18 H     0.000730 -0.000251  0.000429
    19 I     0.006643 -0.017757 -0.000293
    20 I    -0.000992  0.002685  0.000368
 ----------------------------------------
 Mulliken charges used for AMS results%charges...

 dE(predicted):    -0.39642E-02, dE(actual):    -0.13565E-02, Trust radius:    0.800000, all in a.u.
 
----------------------------------------------------------------------
Geometry Convergence after Step  12       (Hartree/Angstrom,Angstrom)
----------------------------------------------------------------------
current energy                               -4.20576677 Hartree
energy change                      -0.00135649     0.00020000    F
constrained gradient max            0.01776964     0.00100000    F
constrained gradient rms            0.00325017     0.00066667    F
gradient max                        0.01776972
gradient rms                        0.00325017
cart. step max                      0.20923525     0.01000000    F
cart. step rms                      0.05414217     0.00666667    F
 
 
--------
Geometry
--------
Formula: C9H8I2O
Atoms
  Index Symbol   x (angstrom)   y (angstrom)   z (angstrom)
      1      H    -0.15704527     0.01947292    -0.28199062
      2      C    -0.11621358    -2.12302684    -0.17727956
      3      C     0.43049722    -0.88123935    -0.13296436
      4      C     1.84258491    -0.71601907     0.13246909
      5      O     2.45946640     0.35195631     0.19154618
      6      H     0.55238186    -2.96528852     0.01254257
      7      C    -4.18063765    -3.24051653    -0.83517286
      8      C    -3.28871127    -4.12412373    -0.22466064
      9      C    -1.96243936    -3.75096154    -0.03371683
     10      C    -1.50383425    -2.47674196    -0.42717904
     11      C    -2.41697976    -1.60026877    -1.04989077
     12      C    -3.73773623    -1.98171221    -1.25202308
     13      H    -3.62657953    -5.10625846     0.09684192
     14      H    -1.26948090    -4.44449135     0.43746359
     15      H    -2.08420158    -0.62478809    -1.39187859
     16      H    -4.42643900    -1.29743044    -1.74153908
     17      H    -5.21565538    -3.53376746    -0.99391444
     18      H     2.41485489    -1.65349413     0.29992596
     19      I     1.47128493     2.74363135     0.15949118
     20      I     0.48615932     5.31664300     0.20670351
 
Total System Charge             0.00000
 
 *** GOStep13 ***

 Energy gradients wrt nuclear displacements
 ==========================================

     Atom      Cartesian (a.u./angstrom)
                 X         Y         Z
 ----------------------------------------
     1 H    -0.000364 -0.000099 -0.000178
     2 C    -0.002158 -0.000995 -0.000670
     3 C     0.000484  0.000750  0.002053
     4 C    -0.001850  0.002210 -0.000307
     5 O    -0.003336  0.010259 -0.001050
     6 H     0.000788 -0.000118 -0.002333
     7 C     0.000174  0.000511 -0.000223
     8 C     0.000557  0.000171  0.000167
     9 C    -0.000922  0.000149  0.001536
    10 C     0.001841  0.001104  0.001087
    11 C    -0.000030 -0.000651 -0.001908
    12 C    -0.000188 -0.000493  0.000208
    13 H    -0.000042 -0.000149  0.000074
    14 H     0.000137 -0.000129  0.000051
    15 H     0.000566  0.000147  0.000077
    16 H    -0.000055  0.000118 -0.000086
    17 H    -0.000123 -0.000117 -0.000006
    18 H     0.000332 -0.000096  0.001017
    19 I     0.004970 -0.014629  0.000305
    20 I    -0.000781  0.002058  0.000186
 ----------------------------------------
 Mulliken charges used for AMS results%charges...

 dE(predicted):    -0.23537E-02, dE(actual):    -0.99235E-03, Trust radius:    0.800000, all in a.u.
 
----------------------------------------------------------------------
Geometry Convergence after Step  13       (Hartree/Angstrom,Angstrom)
----------------------------------------------------------------------
current energy                               -4.20675913 Hartree
energy change                      -0.00099235     0.00020000    F
constrained gradient max            0.01464197     0.00100000    F
constrained gradient rms            0.00259055     0.00066667    F
gradient max                        0.01464204
gradient rms                        0.00259055
cart. step max                      0.21150660     0.01000000    F
cart. step rms                      0.05551000     0.00666667    F
 
 
--------
Geometry
--------
Formula: C9H8I2O
Atoms
  Index Symbol   x (angstrom)   y (angstrom)   z (angstrom)
      1      H    -0.13621715     0.02520496    -0.27114639
      2      C    -0.12292652    -2.11792166    -0.14261023
      3      C     0.43669655    -0.88153485    -0.10499250
      4      C     1.84689519    -0.73024731     0.18088439
      5      O     2.47723488     0.32931184     0.24012477
      6      H     0.53380910    -2.96289445     0.07366696
      7      C    -4.17748034    -3.24295985    -0.85179238
      8      C    -3.26926320    -4.15249136    -0.30763950
      9      C    -1.94787346    -3.77210698    -0.09720482
     10      C    -1.50836639    -2.46839611    -0.40764377
     11      C    -2.43919428    -1.56526296    -0.96356625
     12      C    -3.75515123    -1.95175967    -1.18365098
     13      H    -3.59060473    -5.15920302    -0.05230190
     14      H    -1.24226910    -4.48515282     0.32321159
     15      H    -2.12591995    -0.56307213    -1.23967940
     16      H    -4.45728958    -1.24596519    -1.62054038
     17      H    -5.20919113    -3.53964496    -1.02469941
     18      H     2.40375680    -1.67508613     0.35985996
     19      I     1.47531548     2.75458766     0.08929746
     20      I     0.47931483     5.31617013    -0.00480309
 
Total System Charge             0.00000
 
 *** GOStep14 ***

 Energy gradients wrt nuclear displacements
 ==========================================

     Atom      Cartesian (a.u./angstrom)
                 X         Y         Z
 ----------------------------------------
     1 H    -0.000259 -0.000145  0.000469
     2 C    -0.001274 -0.000982 -0.001695
     3 C     0.000526  0.000544  0.000982
     4 C    -0.002747  0.002529  0.000177
     5 O    -0.001015  0.007743 -0.001045
     6 H     0.000300 -0.000015 -0.000729
     7 C     0.000045  0.000316  0.000012
     8 C     0.000386  0.000032  0.000176
     9 C    -0.000642 -0.000069  0.000970
    10 C     0.001612  0.000918  0.000884
    11 C    -0.000478 -0.000216 -0.001076
    12 C     0.000071 -0.000232 -0.000029
    13 H    -0.000051 -0.000056  0.000028
    14 H     0.000104 -0.000027  0.000038
    15 H     0.000373 -0.000046 -0.000095
    16 H    -0.000016  0.000004 -0.000107
    17 H    -0.000051 -0.000086 -0.000009
    18 H     0.000208 -0.000018  0.000369
    19 I     0.003503 -0.011583  0.000607
    20 I    -0.000595  0.001387  0.000072
 ----------------------------------------
 Mulliken charges used for AMS results%charges...

 dE(predicted):    -0.15235E-02, dE(actual):    -0.82760E-03, Trust radius:    0.800000, all in a.u.
 
----------------------------------------------------------------------
Geometry Convergence after Step  14       (Hartree/Angstrom,Angstrom)
----------------------------------------------------------------------
current energy                               -4.20758673 Hartree
energy change                      -0.00082760     0.00020000    F
constrained gradient max            0.01159592     0.00100000    F
constrained gradient rms            0.00200328     0.00066667    F
gradient max                        0.01159598
gradient rms                        0.00200328
cart. step max                      0.21364142     0.01000000    F
cart. step rms                      0.05666820     0.00666667    F
 
 
--------
Geometry
--------
Formula: C9H8I2O
Atoms
  Index Symbol   x (angstrom)   y (angstrom)   z (angstrom)
      1      H    -0.12320958     0.02908572    -0.26202363
      2      C    -0.13183297    -2.11337817    -0.10459068
      3      C     0.43679085    -0.88089386    -0.07236603
      4      C     1.84469357    -0.73848977     0.23156046
      5      O     2.48424830     0.31518015     0.28779000
      6      H     0.52024227    -2.96112903     0.11427242
      7      C    -4.17390954    -3.24810822    -0.87083492
      8      C    -3.24879397    -4.17836013    -0.39499446
      9      C    -1.93324093    -3.79098332    -0.16135007
     10      C    -1.51437796    -2.46283164    -0.38506265
     11      C    -2.46287831    -1.53854619    -0.87291205
     12      C    -3.77394087    -1.92953404    -1.11163774
     13      H    -3.55253767    -5.20555953    -0.20952493
     14      H    -1.21454936    -4.51975198     0.20655245
     15      H    -2.17009222    -0.51327915    -1.07674268
     16      H    -4.49039135    -1.20579875    -1.49217246
     17      H    -5.20185486    -3.54818270    -1.05936462
     18      H     2.38811217    -1.68719768     0.43139312
     19      I     1.48656912     2.76858553     0.01522711
     20      I     0.50222906     5.32074790    -0.21844451
 
Total System Charge             0.00000
 
 *** GOStep15 ***

 Energy gradients wrt nuclear displacements
 ==========================================

     Atom      Cartesian (a.u./angstrom)
                 X         Y         Z
 ----------------------------------------
     1 H    -0.000005 -0.000219 -0.000118
     2 C    -0.001459 -0.000880  0.000084
     3 C     0.000464  0.000510  0.000857
     4 C    -0.003091  0.002587 -0.000345
     5 O     0.000421  0.006046 -0.000675
     6 H     0.000300 -0.000056 -0.001355
     7 C     0.000012  0.000048 -0.000077
     8 C     0.000273 -0.000098  0.000152
     9 C    -0.000507 -0.000221  0.000588
    10 C     0.001592  0.000779  0.000781
    11 C    -0.000503 -0.000137 -0.001084
    12 C     0.000157  0.000174  0.000273
    13 H    -0.000052  0.000012  0.000018
    14 H     0.000084 -0.000003 -0.000067
    15 H     0.000219 -0.000093 -0.000159
    16 H     0.000003 -0.000044 -0.000058
    17 H     0.000003 -0.000060 -0.000014
    18 H     0.000050  0.000065  0.000341
    19 I     0.002459 -0.009256  0.000846
    20 I    -0.000420  0.000848  0.000011
 ----------------------------------------
 Mulliken charges used for AMS results%charges...

 dE(predicted):    -0.11675E-02, dE(actual):    -0.53805E-03, Trust radius:    0.800000, all in a.u.
 
----------------------------------------------------------------------
Geometry Convergence after Step  15       (Hartree/Angstrom,Angstrom)
----------------------------------------------------------------------
current energy                               -4.20812477 Hartree
energy change                      -0.00053805     0.00020000    F
constrained gradient max            0.00926710     0.00100000    F
constrained gradient rms            0.00162950     0.00066667    F
gradient max                        0.00926712
gradient rms                        0.00162950
cart. step max                      0.21305278     0.01000000    F
cart. step rms                      0.05831600     0.00666667    F
 
 
--------
Geometry
--------
Formula: C9H8I2O
Atoms
  Index Symbol   x (angstrom)   y (angstrom)   z (angstrom)
      1      H    -0.11394763     0.03245413    -0.24956318
      2      C    -0.14208033    -2.10910616    -0.06807871
      3      C     0.43471742    -0.88044804    -0.04222540
      4      C     1.84032283    -0.74527512     0.27867901
      5      O     2.48585579     0.30391974     0.33393977
      6      H     0.50075477    -2.95686360     0.17617463
      7      C    -4.16986993    -3.25593431    -0.89362413
      8      C    -3.22656198    -4.20037792    -0.48711740
      9      C    -1.91786755    -3.80572562    -0.22779150
     10      C    -1.52181875    -2.45866750    -0.36240551
     11      C    -2.49028928    -1.51895712    -0.77662982
     12      C    -3.79470430    -1.91599830    -1.03929442
     13      H    -3.51065523    -5.24361912    -0.37477723
     14      H    -1.18524339    -4.54523926     0.08728120
     15      H    -2.22107687    -0.47477155    -0.90050790
     16      H    -4.52694163    -1.17941039    -1.36034169
     17      H    -5.19325282    -3.55999611    -1.09955602
     18      H     2.37302361    -1.69729084     0.49263017
     19      I     1.50179424     2.79040758    -0.06052043
     20      I     0.54911679     5.33247465    -0.43149729
 
Total System Charge             0.00000
 
 *** GOStep16 ***

 Energy gradients wrt nuclear displacements
 ==========================================

     Atom      Cartesian (a.u./angstrom)
                 X         Y         Z
 ----------------------------------------
     1 H     0.000090 -0.000186  0.000547
     2 C    -0.000727 -0.000805 -0.001644
     3 C     0.000516  0.000307  0.000394
     4 C    -0.003103  0.002540 -0.000749
     5 O     0.001300  0.004260 -0.000267
     6 H    -0.000236  0.000109  0.000369
     7 C    -0.000046 -0.000240  0.000166
     8 C     0.000116 -0.000231  0.000098
     9 C    -0.000334 -0.000249  0.000369
    10 C     0.001592  0.000470  0.000353
    11 C    -0.000777  0.000080 -0.000147
    12 C     0.000456  0.000467 -0.000244
    13 H    -0.000015  0.000048 -0.000099
    14 H     0.000030  0.000067  0.000001
    15 H    -0.000128 -0.000127 -0.000084
    16 H     0.000014 -0.000090  0.000002
    17 H     0.000032 -0.000006  0.000050
    18 H    -0.000032  0.000108  0.000090
    19 I     0.001435 -0.006861  0.000783
    20 I    -0.000181  0.000338  0.000012
 ----------------------------------------
 Mulliken charges used for AMS results%charges...

 dE(predicted):    -0.69517E-03, dE(actual):    -0.46907E-03, Trust radius:    0.800000, all in a.u.
 
----------------------------------------------------------------------
Geometry Convergence after Step  16       (Hartree/Angstrom,Angstrom)
----------------------------------------------------------------------
current energy                               -4.20859384 Hartree
energy change                      -0.00046907     0.00020000    F
constrained gradient max            0.00687219     0.00100000    F
constrained gradient rms            0.00126453     0.00066667    F
gradient max                        0.00687220
gradient rms                        0.00126453
cart. step max                      0.21258905     0.01000000    F
cart. step rms                      0.05863531     0.00666667    F
 
 
--------
Geometry
--------
Formula: C9H8I2O
Atoms
  Index Symbol   x (angstrom)   y (angstrom)   z (angstrom)
      1      H    -0.10667618     0.03066925    -0.24214989
      2      C    -0.15319291    -2.10758458    -0.02203985
      3      C     0.43098031    -0.88254887    -0.00870614
      4      C     1.83467271    -0.75028520     0.32627433
      5      O     2.48215311     0.29698284     0.37536688
      6      H     0.48635549    -2.95660822     0.22623728
      7      C    -4.16530959    -3.25964352    -0.91818922
      8      C    -3.20512753    -4.21444739    -0.58188398
      9      C    -1.90332306    -3.81658063    -0.29368974
     10      C    -1.52968451    -2.45711665    -0.33297208
     11      C    -2.51551855    -1.50679660    -0.67599979
     12      C    -3.81401751    -1.90599718    -0.96322727
     13      H    -3.47085749    -5.26780012    -0.54477800
     14      H    -1.15772778    -4.56415726    -0.03292954
     15      H    -2.26721693    -0.45113636    -0.71929048
     16      H    -4.56037407    -1.16049570    -1.22565878
     17      H    -5.18371084    -3.56532389    -1.14506271
     18      H     2.35933630    -1.70291503     0.55794882
     19      I     1.51557554     2.81416755    -0.14038936
     20      I     0.59493927     5.33919270    -0.64408633
 
Total System Charge             0.00000
 
 *** GOStep17 ***

 Energy gradients wrt nuclear displacements
 ==========================================

     Atom      Cartesian (a.u./angstrom)
                 X         Y         Z
 ----------------------------------------
     1 H     0.000398 -0.000154  0.000041
     2 C    -0.001117 -0.000321  0.000764
     3 C     0.000481  0.000122 -0.000124
     4 C    -0.002478  0.002267 -0.000846
     5 O     0.001430  0.002872  0.000094
     6 H    -0.000134  0.000070 -0.000334
     7 C    -0.000056 -0.000508 -0.000104
     8 C    -0.000052 -0.000334  0.000206
     9 C    -0.000068 -0.000270 -0.000362
    10 C     0.001447  0.000223  0.000483
    11 C    -0.000644  0.000042 -0.000278
    12 C     0.000424  0.000832  0.000242
    13 H    -0.000023  0.000153  0.000028
    14 H     0.000000  0.000115 -0.000096
    15 H    -0.000359 -0.000207 -0.000232
    16 H     0.000059 -0.000159  0.000003
    17 H     0.000113  0.000031 -0.000038
    18 H    -0.000123  0.000127 -0.000126
    19 I     0.000688 -0.004690  0.000630
    20 I     0.000015 -0.000209  0.000049
 ----------------------------------------
 Mulliken charges used for AMS results%charges...

 dE(predicted):    -0.33966E-03, dE(actual):    -0.29324E-03, Trust radius:    0.800000, all in a.u.
 
----------------------------------------------------------------------
Geometry Convergence after Step  17       (Hartree/Angstrom,Angstrom)
----------------------------------------------------------------------
current energy                               -4.20888708 Hartree
energy change                      -0.00029324     0.00020000    F
constrained gradient max            0.00470204     0.00100000    F
constrained gradient rms            0.00093562     0.00066667    F
gradient max                        0.00470205
gradient rms                        0.00093562
cart. step max                      0.21217801     0.01000000    F
cart. step rms                      0.05771776     0.00666667    F
 
 
--------
Geometry
--------
Formula: C9H8I2O
Atoms
  Index Symbol   x (angstrom)   y (angstrom)   z (angstrom)
      1      H    -0.10445339     0.02216614    -0.24032322
      2      C    -0.15813716    -2.11314979     0.00397560
      3      C     0.42683168    -0.88903998     0.01558567
      4      C     1.82430729    -0.75166412     0.37944855
      5      O     2.46556862     0.29812167     0.43110083
      6      H     0.47580802    -2.96059891     0.27147887
      7      C    -4.16251496    -3.25992599    -0.93615234
      8      C    -3.18612854    -4.22162828    -0.67457297
      9      C    -1.88887112    -3.82576641    -0.36347155
     10      C    -1.53311477    -2.46194342    -0.31737146
     11      C    -2.53562975    -1.50446451    -0.58216706
     12      C    -3.83099722    -1.90148267    -0.88681127
     13      H    -3.43640291    -5.27881839    -0.70937914
     14      H    -1.13187487    -4.57870228    -0.15664255
     15      H    -2.30488254    -0.44460580    -0.54385275
     16      H    -4.59116291    -1.15023433    -1.08539133
     17      H    -5.17870312    -3.56368398    -1.17503772
     18      H     2.34368471    -1.70137135     0.63525315
     19      I     1.52655476     2.84740476    -0.21463083
     20      I     0.65139394     5.35096278    -0.85626435
 
Total System Charge             0.00000
 
 *** GOStep18 ***

 Energy gradients wrt nuclear displacements
 ==========================================

     Atom      Cartesian (a.u./angstrom)
                 X         Y         Z
 ----------------------------------------
     1 H     0.000425  0.000003  0.000094
     2 C    -0.000290 -0.000234 -0.001301
     3 C    -0.000029 -0.000164 -0.000107
     4 C    -0.001446  0.001766 -0.000828
     5 O     0.001145  0.001809  0.000327
     6 H    -0.000379  0.000180  0.000743
     7 C    -0.000198 -0.000626  0.000239
     8 C    -0.000030 -0.000370 -0.000529
     9 C    -0.000183 -0.000154  0.000223
    10 C     0.001192 -0.000013 -0.000003
    11 C    -0.000462  0.000065  0.000574
    12 C     0.000482  0.000868 -0.000111
    13 H     0.000037  0.000185 -0.000061
    14 H    -0.000078  0.000141  0.000083
    15 H    -0.000501 -0.000146  0.000052
    16 H     0.000088 -0.000181 -0.000001
    17 H     0.000109  0.000074  0.000108
    18 H    -0.000242  0.000158 -0.000003
    19 I     0.000186 -0.002628  0.000412
    20 I     0.000175 -0.000733  0.000090
 ----------------------------------------
 Mulliken charges used for AMS results%charges...
 Rebuilding optimization coordinates
Bad geometry: could not add a dihedral for atom   20

 dE(predicted):    -0.16775E-03, dE(actual):    -0.16116E-03, Trust radius:    1.000000, all in a.u.
 
----------------------------------------------------------------------
Geometry Convergence after Step  18       (Hartree/Angstrom,Angstrom)
----------------------------------------------------------------------
current energy                               -4.20904825 Hartree
energy change                      -0.00016116     0.00020000    T
constrained gradient max            0.00263884     0.00100000    F
constrained gradient rms            0.00065243     0.00066667    T
gradient max                        0.00263883
gradient rms                        0.00065243
cart. step max                      0.05057515     0.01000000    F
cart. step rms                      0.01656760     0.00666667    F
 
 
--------
Geometry
--------
Formula: C9H8I2O
Atoms
  Index Symbol   x (angstrom)   y (angstrom)   z (angstrom)
      1      H    -0.11163127     0.01476631    -0.22804605
      2      C    -0.16362647    -2.11814398     0.03029976
      3      C     0.42149164    -0.89451061     0.03190667
      4      C     1.82272495    -0.75367670     0.38389019
      5      O     2.46002151     0.29817435     0.42571109
      6      H     0.47078411    -2.96512080     0.29846040
      7      C    -4.16066470    -3.26050605    -0.94766272
      8      C    -3.18272789    -4.22406273    -0.69838649
      9      C    -1.88696104    -3.83063769    -0.37803653
     10      C    -1.53678228    -2.46694373    -0.30217257
     11      C    -2.54054640    -1.50753610    -0.55326131
     12      C    -3.83381718    -1.90243873    -0.87059056
     13      H    -3.42964130    -5.28116157    -0.75395910
     14      H    -1.12818729    -4.58514748    -0.18392646
     15      H    -2.31198142    -0.44815553    -0.49327760
     16      H    -4.59558567    -1.14972226    -1.05709252
     17      H    -5.17471194    -3.56287683    -1.19705071
     18      H     2.34719036    -1.70245046     0.63328376
     19      I     1.52856873     2.87436317    -0.24090199
     20      I     0.67735931     5.37736257    -0.90441311
 
Total System Charge             0.00000
 
 *** GOStep19 ***

 Energy gradients wrt nuclear displacements
 ==========================================

     Atom      Cartesian (a.u./angstrom)
                 X         Y         Z
 ----------------------------------------
     1 H     0.000138  0.000093  0.000109
     2 C    -0.000301  0.000199  0.001398
     3 C    -0.000442 -0.000482 -0.000932
     4 C    -0.000442  0.001453 -0.000525
     5 O     0.000684  0.001254  0.000294
     6 H    -0.000195  0.000112  0.000565
     7 C    -0.000125 -0.000374 -0.000334
     8 C    -0.000230 -0.000299  0.000631
     9 C     0.000309 -0.000190 -0.001161
    10 C     0.000440 -0.000184 -0.000453
    11 C    -0.000036  0.000181  0.000430
    12 C     0.000053  0.000536  0.000086
    13 H     0.000065  0.000188  0.000007
    14 H    -0.000072  0.000133 -0.000022
    15 H    -0.000191 -0.000096 -0.000104
    16 H     0.000075 -0.000181  0.000122
    17 H     0.000173  0.000082 -0.000025
    18 H    -0.000163  0.000146 -0.000462
    19 I     0.000019 -0.001708  0.000260
    20 I     0.000240 -0.000863  0.000115
 ----------------------------------------
 Mulliken charges used for AMS results%charges...

 dE(predicted):    -0.53202E-04, dE(actual):    -0.73357E-04, Trust radius:    1.000000, all in a.u.
 
----------------------------------------------------------------------
Geometry Convergence after Step  19       (Hartree/Angstrom,Angstrom)
----------------------------------------------------------------------
current energy                               -4.20912160 Hartree
energy change                      -0.00007336     0.00020000    T
constrained gradient max            0.00171924     0.00100000    F
constrained gradient rms            0.00051647     0.00066667    T
gradient max                        0.00171924
gradient rms                        0.00051647
cart. step max                      0.02558261     0.01000000    F
cart. step rms                      0.00897065     0.00666667    F
 
 
--------
Geometry
--------
Formula: C9H8I2O
Atoms
  Index Symbol   x (angstrom)   y (angstrom)   z (angstrom)
      1      H    -0.11072898     0.01233039    -0.24002207
      2      C    -0.15935337    -2.12119592     0.01167775
      3      C     0.42336068    -0.89643904     0.01983216
      4      C     1.82117740    -0.75262346     0.38457559
      5      O     2.45458932     0.30113042     0.43405058
      6      H     0.47605698    -2.96821885     0.27722735
      7      C    -4.16350394    -3.26229883    -0.93929994
      8      C    -3.18639196    -4.22590401    -0.68684262
      9      C    -1.88966101    -3.83268574    -0.37020347
     10      C    -1.53539751    -2.46928636    -0.31074192
     11      C    -2.53771757    -1.50984748    -0.56715846
     12      C    -3.83313613    -1.90446411    -0.87623025
     13      H    -3.43601435    -5.28287241    -0.73215963
     14      H    -1.13209278    -4.58724800    -0.17165137
     15      H    -2.30565063    -0.45065172    -0.51886021
     16      H    -4.59326755    -1.15161370    -1.06882231
     17      H    -5.17911126    -3.56467099    -1.18227646
     18      H     2.34453698    -1.69982959     0.64219960
     19      I     1.52837944     2.88512761    -0.22738387
     20      I     0.68520201     5.39283692    -0.88313630
 
Total System Charge             0.00000
 
 *** GOStep20 ***

 Energy gradients wrt nuclear displacements
 ==========================================

     Atom      Cartesian (a.u./angstrom)
                 X         Y         Z
 ----------------------------------------
     1 H     0.000111  0.000015 -0.000173
     2 C     0.000550 -0.000137 -0.000509
     3 C    -0.000593 -0.000345 -0.000373
     4 C    -0.000207  0.001315 -0.000341
     5 O     0.000516  0.001251  0.000222
     6 H    -0.000146  0.000116  0.000452
     7 C    -0.000267 -0.000191  0.000242
     8 C     0.000156 -0.000253 -0.000729
     9 C     0.000050 -0.000127  0.000344
    10 C    -0.000151 -0.000003 -0.000019
    11 C    -0.000102  0.000167  0.000578
    12 C    -0.000059  0.000347 -0.000044
    13 H     0.000055  0.000174  0.000021
    14 H    -0.000072  0.000130 -0.000041
    15 H    -0.000097 -0.000129  0.000034
    16 H     0.000118 -0.000173 -0.000080
    17 H     0.000147  0.000063  0.000083
    18 H    -0.000281  0.000191 -0.000054
    19 I     0.000067 -0.001663  0.000316
    20 I     0.000204 -0.000748  0.000071
 ----------------------------------------
 Mulliken charges used for AMS results%charges...

 dE(predicted):    -0.30710E-04, dE(actual):    -0.42424E-04, Trust radius:    1.000000, all in a.u.
 
----------------------------------------------------------------------
Geometry Convergence after Step  20       (Hartree/Angstrom,Angstrom)
----------------------------------------------------------------------
current energy                               -4.20916403 Hartree
energy change                      -0.00004242     0.00020000    T
constrained gradient max            0.00167354     0.00100000    F
constrained gradient rms            0.00041718     0.00066667    T
gradient max                        0.00167354
gradient rms                        0.00041718
cart. step max                      0.06012771     0.01000000    F
cart. step rms                      0.01946295     0.00666667    F
 
 
--------
Geometry
--------
Formula: C9H8I2O
Atoms
  Index Symbol   x (angstrom)   y (angstrom)   z (angstrom)
      1      H    -0.11400945     0.00794456    -0.24638621
      2      C    -0.15731456    -2.12645298    -0.00576263
      3      C     0.42305623    -0.90074685     0.00803592
      4      C     1.82106602    -0.75402550     0.37337068
      5      O     2.44843210     0.30258036     0.42641659
      6      H     0.47917805    -2.97353340     0.25682868
      7      C    -4.16781488    -3.26917799    -0.93060100
      8      C    -3.19474021    -4.23149579    -0.65823798
      9      C    -1.89571867    -3.83750760    -0.35212521
     10      C    -1.53523715    -2.47484805    -0.32299792
     11      C    -2.53349939    -1.51675847    -0.59866905
     12      C    -3.83115345    -1.91202707    -0.89796173
     13      H    -3.44946909    -5.28804906    -0.67985176
     14      H    -1.14188909    -4.59108475    -0.13631305
     15      H    -2.29603329    -0.45802279    -0.57202818
     16      H    -4.58812848    -1.15985397    -1.10525731
     17      H    -5.18525033    -3.57243599    -1.16475549
     18      H     2.34745705    -1.70048895     0.62821658
     19      I     1.53145285     2.92229070    -0.20413819
     20      I     0.71089151     5.44526871    -0.82300858
 
Total System Charge             0.00000
 
 *** GOStep21 ***

 Energy gradients wrt nuclear displacements
 ==========================================

     Atom      Cartesian (a.u./angstrom)
                 X         Y         Z
 ----------------------------------------
     1 H    -0.000067 -0.000068 -0.000272
     2 C     0.001315 -0.000322 -0.001068
     3 C    -0.000632 -0.000113 -0.000005
     4 C     0.000547  0.000920 -0.000030
     5 O    -0.000024  0.000967  0.000039
     6 H    -0.000142  0.000125  0.000422
     7 C    -0.000229  0.000159  0.000261
     8 C     0.000238 -0.000195 -0.000737
     9 C     0.000098 -0.000028  0.000703
    10 C    -0.000934  0.000119 -0.000385
    11 C    -0.000076  0.000189  0.000400
    12 C    -0.000233 -0.000072 -0.000269
    13 H     0.000046  0.000123 -0.000045
    14 H    -0.000117  0.000105  0.000108
    15 H     0.000069 -0.000185  0.000329
    16 H     0.000097 -0.000128 -0.000009
    17 H     0.000121  0.000010  0.000169
    18 H    -0.000323  0.000176  0.000071
    19 I     0.000081 -0.001221  0.000306
    20 I     0.000165 -0.000559  0.000013
 ----------------------------------------
 Mulliken charges used for AMS results%charges...

 dE(predicted):    -0.54350E-04, dE(actual):    -0.92236E-04, Trust radius:    1.000000, all in a.u.
 
----------------------------------------------------------------------
Geometry Convergence after Step  21       (Hartree/Angstrom,Angstrom)
----------------------------------------------------------------------
current energy                               -4.20925626 Hartree
energy change                      -0.00009224     0.00020000    T
constrained gradient max            0.00131401     0.00100000    F
constrained gradient rms            0.00042353     0.00066667    T
gradient max                        0.00131401
gradient rms                        0.00042353
cart. step max                      0.14773060     0.01000000    F
cart. step rms                      0.04498697     0.00666667    F
 
 
--------
Geometry
--------
Formula: C9H8I2O
Atoms
  Index Symbol   x (angstrom)   y (angstrom)   z (angstrom)
      1      H    -0.12478758     0.00298928    -0.24087078
      2      C    -0.15976072    -2.13391865    -0.02503229
      3      C     0.41881042    -0.90771857    -0.00746193
      4      C     1.82364660    -0.75964998     0.33493572
      5      O     2.44319283     0.30050872     0.38440266
      6      H     0.48111628    -2.98186358     0.22352094
      7      C    -4.17608461    -3.28643683    -0.91593903
      8      C    -3.21218159    -4.24233138    -0.59310232
      9      C    -1.91106561    -3.84462067    -0.30089791
     10      C    -1.54035775    -2.48476325    -0.33101228
     11      C    -2.52855675    -1.53361135    -0.66070357
     12      C    -3.82775509    -1.93243278    -0.94874968
     13      H    -3.47541683    -5.29680366    -0.56659686
     14      H    -1.16332989    -4.59376978    -0.05090722
     15      H    -2.27911151    -0.47785335    -0.69509216
     16      H    -4.57520744    -1.18533787    -1.20394303
     17      H    -5.19385636    -3.59317765    -1.14440565
     18      H     2.35854938    -1.70698262     0.57017158
     19      I     1.54474736     3.00675733    -0.15826404
     20      I     0.76868461     5.56259177    -0.67527798
 
Total System Charge             0.00000
 
 *** GOStep22 ***

 Energy gradients wrt nuclear displacements
 ==========================================

     Atom      Cartesian (a.u./angstrom)
                 X         Y         Z
 ----------------------------------------
     1 H    -0.000219 -0.000113 -0.000161
     2 C     0.001494 -0.000080 -0.000500
     3 C    -0.000227  0.000120 -0.000011
     4 C     0.001487  0.000219  0.000430
     5 O    -0.000952  0.000422 -0.000308
     6 H    -0.000170  0.000071  0.000023
     7 C    -0.000116  0.000514  0.000422
     8 C     0.000360 -0.000179 -0.000816
     9 C     0.000077  0.000098  0.000884
    10 C    -0.001601  0.000195 -0.000016
    11 C    -0.000222  0.000162  0.000378
    12 C    -0.000354 -0.000478  0.000040
    13 H    -0.000040  0.000007  0.000017
    14 H    -0.000032  0.000004 -0.000213
    15 H     0.000326 -0.000250 -0.000102
    16 H     0.000134 -0.000037 -0.000244
    17 H     0.000105 -0.000112 -0.000048
    18 H    -0.000244  0.000037  0.000026
    19 I     0.000080 -0.000349  0.000215
    20 I     0.000112 -0.000252 -0.000016
 ----------------------------------------
 Mulliken charges used for AMS results%charges...

 dE(predicted):    -0.99651E-04, dE(actual):    -0.12523E-03, Trust radius:    1.000000, all in a.u.
 
----------------------------------------------------------------------
Geometry Convergence after Step  22       (Hartree/Angstrom,Angstrom)
----------------------------------------------------------------------
current energy                               -4.20938149 Hartree
energy change                      -0.00012523     0.00020000    T
constrained gradient max            0.00160415     0.00100000    F
constrained gradient rms            0.00045086     0.00066667    T
gradient max                        0.00160415
gradient rms                        0.00045086
cart. step max                      0.02521472     0.01000000    F
cart. step rms                      0.00674458     0.00666667    F
 
 
--------
Geometry
--------
Formula: C9H8I2O
Atoms
  Index Symbol   x (angstrom)   y (angstrom)   z (angstrom)
      1      H    -0.12627358     0.00206149    -0.23571678
      2      C    -0.16068079    -2.13608880    -0.02745055
      3      C     0.41713668    -0.90975501    -0.00602042
      4      C     1.82291117    -0.76229569     0.33343791
      5      O     2.44218985     0.29783830     0.38206567
      6      H     0.48116213    -2.98416889     0.21844352
      7      C    -4.17708502    -3.28951814    -0.91580320
      8      C    -3.21481692    -4.24456911    -0.58588868
      9      C    -1.91184484    -3.84730964    -0.30123610
     10      C    -1.53933362    -2.48807545    -0.33831992
     11      C    -2.52650515    -1.53758665    -0.67325473
     12      C    -3.82658602    -1.93617226    -0.95721946
     13      H    -3.48012692    -5.29824674    -0.54990632
     14      H    -1.16620806    -4.59554517    -0.04221628
     15      H    -2.27801784    -0.48153001    -0.70782244
     16      H    -4.57474467    -1.18894899    -1.21009912
     17      H    -5.19671380    -3.59547921    -1.13706066
[...]
 Index  Atom      ---- Displacements (x/y/z) ----
     1     H       0.003027  -0.007587   0.001812
     2     C      -0.023545   0.019210  -0.007815
     3     C      -0.022545  -0.021070  -0.003528
     4     C       0.000384  -0.012399   0.001362
     5     O       0.006878   0.011707   0.000523
     6     H      -0.094808  -0.036676  -0.019870
     7     C       0.097942   0.009851   0.023467
     8     C      -0.110869   0.077586  -0.034985
     9     C      -0.058402  -0.110130  -0.004121
    10     C       0.144667   0.018616   0.034283
    11     C      -0.080324   0.080778  -0.027647
    12     C      -0.088241  -0.130683  -0.009613
    13     H       0.407426  -0.038021   0.105241
    14     H       0.362338   0.314360   0.060597
    15     H       0.431978  -0.025877   0.109805
    16     H       0.365975   0.335226   0.059459
    17     H       0.095268   0.097286   0.014515
    18     H      -0.002535  -0.013844   0.000806
    19     I      -0.000002   0.000023  -0.000003
    20     I       0.000004  -0.000008   0.000002
 
 Mode:    49      Frequency (cm-1):     1573.7427     Intensity (km/mol):       17.6758
 Index  Atom      ---- Displacements (x/y/z) ----
     1     H       0.161335   0.065259   0.033264
     2     C       0.072687   0.048796   0.013163
     3     C      -0.068981  -0.075401  -0.009568
     4     C       0.006827  -0.003923   0.002141
     5     O       0.008337   0.014573   0.000584
     6     H       0.016762   0.014364   0.002609
     7     C       0.090039  -0.341188   0.054729
     8     C      -0.091318   0.177734  -0.039588
     9     C      -0.061587  -0.189877   0.002701
    10     C      -0.091434   0.224529  -0.044154
    11     C       0.144029  -0.129651   0.048148
    12     C      -0.000708   0.204119  -0.019495
    13     H       0.180334   0.130272   0.032710
    14     H       0.264225   0.147091   0.051983
    15     H      -0.339281  -0.020024  -0.082339
    16     H      -0.218208   0.002847  -0.054595
    17     H      -0.129178   0.500044  -0.079487
    18     H      -0.064157  -0.054803  -0.010536
    19     I       0.000015  -0.000074   0.000012
    20     I      -0.000006   0.000027  -0.000005
 
 Mode:    50      Frequency (cm-1):     1598.5452     Intensity (km/mol):      142.0226
 Index  Atom      ---- Displacements (x/y/z) ----
     1     H      -0.176635  -0.058493  -0.037836
     2     C      -0.096416  -0.099209  -0.014150
     3     C       0.064066   0.087868   0.007067
     4     C      -0.036043  -0.056936  -0.003197
     5     O       0.014102   0.026184   0.000860
     6     H       0.174521   0.112195   0.033062
     7     C      -0.116320  -0.053193  -0.023938
     8     C       0.242613   0.020325   0.058604
     9     C      -0.229853  -0.157845  -0.042406
    10     C       0.180425   0.099131   0.035440
    11     C      -0.265922  -0.029467  -0.063386
    12     C       0.232240   0.149563   0.043699
    13     H      -0.243507   0.148526  -0.074795
    14     H       0.203153   0.300824   0.022139
    15     H       0.334479  -0.179484   0.099932
    16     H      -0.180489  -0.295245  -0.017104
    17     H      -0.136430  -0.026802  -0.031482
    18     H       0.104114   0.039364   0.022085
    19     I      -0.000047   0.000225  -0.000038
    20     I       0.000024  -0.000090   0.000017
 
 Mode:    51      Frequency (cm-1):     1621.5483     Intensity (km/mol):      232.4678
 Index  Atom      ---- Displacements (x/y/z) ----
     1     H      -0.429127  -0.086781  -0.098153
     2     C      -0.240697  -0.321331  -0.027867
     3     C       0.219669   0.290721   0.025460
     4     C      -0.029038  -0.024400  -0.004773
     5     O      -0.016453  -0.017722  -0.002289
     6     H       0.513150   0.259883   0.102869
     7     C       0.060863  -0.035417   0.018510
     8     C      -0.130637   0.023827  -0.034816
     9     C       0.092144   0.008502   0.022174
    10     C      -0.007319   0.111471  -0.012614
    11     C       0.107640  -0.036705   0.030345
    12     C      -0.079286  -0.016205  -0.018201
    13     H       0.149532  -0.046753   0.041728
    14     H      -0.019113  -0.111847   0.005749
    15     H      -0.073751   0.000649  -0.018781
    16     H       0.003192   0.073896  -0.006186
    17     H       0.041882   0.061470   0.004561
    18     H       0.159105   0.104936   0.029183
    19     I      -0.000058   0.000273  -0.000046
    20     I       0.000023  -0.000112   0.000019
 
 Mode:    52      Frequency (cm-1):     1660.1335     Intensity (km/mol):      819.1302
 Index  Atom      ---- Displacements (x/y/z) ----
     1     H      -0.191445  -0.155495  -0.032004
     2     C       0.081386   0.071248   0.013166
     3     C       0.022160   0.015044   0.003963
     4     C      -0.390348  -0.572888  -0.038995
     5     O       0.232418   0.381274   0.019198
     6     H      -0.062396  -0.024182  -0.013360
     7     C       0.007659   0.008262   0.001125
     8     C      -0.023018  -0.005243  -0.005248
     9     C       0.031460   0.034232   0.004591
    10     C      -0.065361  -0.037022  -0.012711
    11     C       0.036812   0.001142   0.009068
    12     C      -0.022991  -0.018133  -0.004020
    13     H       0.007396  -0.012810   0.003075
    14     H      -0.042310  -0.039163  -0.006900
    15     H      -0.035645   0.018139  -0.010548
    16     H       0.015400   0.021542   0.001879
    17     H       0.012093  -0.004344   0.003504
    18     H       0.455803   0.046781   0.109002
    19     I      -0.000244   0.001212  -0.000202
    20     I       0.000159  -0.000482   0.000096
 
 Mode:    53      Frequency (cm-1):     2853.1917     Intensity (km/mol):      137.9091
 Index  Atom      ---- Displacements (x/y/z) ----
     1     H      -0.005671   0.008283  -0.002246
     2     C       0.000977  -0.001061   0.000354
     3     C       0.002404   0.001231   0.000474
     4     C      -0.045473   0.066438  -0.018209
     5     O       0.001851   0.002556   0.000200
     6     H      -0.014790   0.008288  -0.004513
     7     C      -0.000032   0.000026  -0.000011
     8     C      -0.000013  -0.000060   0.000003
     9     C      -0.000002   0.000061  -0.000006
    10     C      -0.000187  -0.000623   0.000016
    11     C       0.000124   0.000043   0.000027
    12     C      -0.000030  -0.000097   0.000001
    13     H      -0.000005   0.000518  -0.000045
    14     H      -0.000986   0.000863  -0.000307
    15     H       0.000285   0.000219   0.000045
    16     H       0.000272  -0.000125   0.000062
    17     H      -0.000146  -0.000087  -0.000042
    18     H       0.494226  -0.839317   0.209851
    19     I       0.000004  -0.000052   0.000007
    20     I      -0.000001   0.000016  -0.000002
 
 Mode:    54      Frequency (cm-1):     3087.5421     Intensity (km/mol):       10.0701
 Index  Atom      ---- Displacements (x/y/z) ----
     1     H      -0.022935   0.035718  -0.009374
     2     C      -0.047998   0.066993  -0.018761
     3     C       0.000057  -0.005367   0.000559
     4     C      -0.001723   0.000189  -0.000453
     5     O       0.000420   0.000337   0.000070
     6     H       0.578275  -0.775521   0.222918
     7     C      -0.000107  -0.000138  -0.000014
     8     C      -0.000088   0.000704  -0.000089
     9     C       0.004409  -0.004150   0.001495
    10     C       0.001175   0.001674   0.000130
    11     C       0.000622   0.000792   0.000079
    12     C       0.000116   0.000036   0.000025
    13     H      -0.003241  -0.011976   0.000316
    14     H      -0.049055   0.045536  -0.016583
    15     H      -0.002929  -0.012751   0.000479
    16     H      -0.001851   0.001263  -0.000576
    17     H       0.002106   0.000325   0.000492
    18     H       0.011505  -0.011081   0.004001
    19     I      -0.000002  -0.000001  -0.000000
    20     I       0.000000   0.000002  -0.000000
 
 Mode:    55      Frequency (cm-1):     3127.0212     Intensity (km/mol):        2.5074
 Index  Atom      ---- Displacements (x/y/z) ----
     1     H      -0.003406   0.006644  -0.001535
     2     C       0.002803  -0.003344   0.001039
     3     C       0.000212  -0.000529   0.000107
     4     C       0.000091  -0.000085   0.000032
     5     O      -0.000022  -0.000008  -0.000005
     6     H      -0.033291   0.041182  -0.012489
     7     C      -0.033943  -0.010151  -0.007499
     8     C       0.010444   0.043664  -0.001542
     9     C       0.036349  -0.038201   0.012693
    10     C       0.001304   0.001085   0.000221
    11     C       0.001094   0.008726  -0.000552
    12     C       0.018180  -0.017690   0.006203
    13     H      -0.131680  -0.521789   0.016673
    14     H      -0.434496   0.439572  -0.150042
    15     H      -0.024120  -0.103996   0.003817
    16     H      -0.213071   0.214035  -0.073308
    17     H       0.406172   0.120342   0.089829
    18     H      -0.000780   0.000979  -0.000299
    19     I       0.000000  -0.000001   0.000000
    20     I      -0.000000   0.000000  -0.000000
 
 Mode:    56      Frequency (cm-1):     3134.4992     Intensity (km/mol):        0.6047
 Index  Atom      ---- Displacements (x/y/z) ----
     1     H      -0.036483   0.060387  -0.015281
     2     C      -0.001554   0.002483  -0.000639
     3     C       0.003271  -0.005495   0.001378
     4     C      -0.000350  -0.000117  -0.000075
     5     O       0.000081   0.000089   0.000012
     6     H       0.020862  -0.024745   0.007725
     7     C      -0.038038  -0.010172  -0.008518
     8     C       0.000539  -0.006770   0.000778
     9     C      -0.034525   0.035196  -0.011953
    10     C      -0.000660  -0.001220  -0.000047
    11     C       0.003629   0.018012  -0.000799
    12     C       0.035711  -0.034747   0.012184
    13     H       0.016859   0.074981  -0.002906
    14     H       0.400398  -0.404288   0.138201
    15     H      -0.053181  -0.218683   0.007421
    16     H      -0.413488   0.414565  -0.142197
    17     H       0.443988   0.130731   0.098260
    18     H       0.000522  -0.000463   0.000189
    19     I       0.000000  -0.000002   0.000000
    20     I      -0.000000   0.000001  -0.000000
 
 Mode:    57      Frequency (cm-1):     3143.8556     Intensity (km/mol):       12.3510
 Index  Atom      ---- Displacements (x/y/z) ----
     1     H      -0.072980   0.122252  -0.030719
     2     C       0.002108  -0.001386   0.000667
     3     C       0.005954  -0.010857   0.002595
     4     C      -0.000095  -0.000378   0.000015
     5     O       0.000003   0.000040  -0.000003
     6     H      -0.020289   0.025193  -0.007624
     7     C       0.034239   0.012868   0.007315
     8     C      -0.013020  -0.041522   0.000693
     9     C       0.024726  -0.023923   0.008439
    10     C       0.001272   0.001161   0.000206
    11     C       0.004832   0.027939  -0.001438
    12     C       0.030046  -0.032329   0.010543
    13     H       0.125469   0.482091  -0.014468
    14     H      -0.271961   0.273520  -0.093770
    15     H      -0.077386  -0.327327   0.011655
    16     H      -0.353976   0.358134  -0.122045
    17     H      -0.399858  -0.121609  -0.088144
    18     H      -0.001366   0.002052  -0.000550
    19     I      -0.000000  -0.000001   0.000000
    20     I      -0.000000  -0.000000  -0.000000
 
 Mode:    58      Frequency (cm-1):     3151.7748     Intensity (km/mol):        9.1572
 Index  Atom      ---- Displacements (x/y/z) ----
     1     H      -0.334025   0.556244  -0.140227
     2     C       0.002759   0.001345   0.000555
     3     C       0.027803  -0.049304   0.011977
     4     C      -0.001168  -0.001323  -0.000157
     5     O       0.000213   0.000330   0.000019
     6     H      -0.015005   0.022442  -0.006019
     7     C       0.026819   0.005845   0.006131
     8     C       0.010044   0.040184  -0.001308
     9     C      -0.013751   0.011133  -0.004487
    10     C       0.000900  -0.001728   0.000390
    11     C       0.009084   0.036441  -0.001184
    12     C      -0.009180   0.006162  -0.002871
    13     H      -0.113855  -0.448351   0.014157
    14     H       0.137106  -0.134949   0.046994
    15     H      -0.101446  -0.415796   0.014031
    16     H       0.087723  -0.084729   0.029861
    17     H      -0.294610  -0.084791  -0.065385
    18     H      -0.003761   0.005197  -0.001471
    19     I       0.000000  -0.000007   0.000001
    20     I      -0.000002  -0.000001  -0.000000
 
 Mode:    59      Frequency (cm-1):     3155.3601     Intensity (km/mol):        8.5522
 Index  Atom      ---- Displacements (x/y/z) ----
     1     H      -0.291575   0.485423  -0.122388
     2     C       0.003079   0.000228   0.000746
     3     C       0.023976  -0.042914   0.010370
     4     C      -0.000789  -0.001128  -0.000082
     5     O       0.000115   0.000213   0.000007
     6     H      -0.020358   0.028415  -0.007969
     7     C      -0.044543  -0.012625  -0.009906
     8     C      -0.009549  -0.041849   0.001589
     9     C       0.013751  -0.011654   0.004537
    10     C       0.000644   0.000408   0.000122
    11     C       0.001096   0.000159   0.000258
    12     C      -0.019983   0.022452  -0.007103
    13     H       0.115414   0.459502  -0.014820
    14     H      -0.139423   0.137863  -0.047851
    15     H       0.000602   0.006740  -0.000493
    16     H       0.231653  -0.235952   0.080016
    17     H       0.490988   0.145060   0.108629
    18     H      -0.004066   0.005283  -0.001570
    19     I      -0.000000  -0.000003   0.000000
    20     I      -0.000002  -0.000003  -0.000000
 
 Mode:    60      Frequency (cm-1):     3163.6481     Intensity (km/mol):        5.3118
 Index  Atom      ---- Displacements (x/y/z) ----
     1     H       0.220379  -0.365254   0.092325
     2     C      -0.001210  -0.000664  -0.000234
     3     C      -0.018203   0.031980  -0.007814
     4     C       0.000867   0.000843   0.000130
     5     O      -0.000183  -0.000274  -0.000018
     6     H       0.003745  -0.009338   0.001878
     7     C      -0.013779  -0.005333  -0.002929
     8     C      -0.001517  -0.008416   0.000420
     9     C       0.001299  -0.001574   0.000473
    10     C       0.001814  -0.001004   0.000547
    11     C       0.017631   0.067572  -0.001996
    12     C      -0.024119   0.021970  -0.008087
    13     H       0.022230   0.090049  -0.002997
    14     H      -0.012803   0.013434  -0.004472
    15     H      -0.190068  -0.773639   0.025812
    16     H       0.249423  -0.249103   0.085691
    17     H       0.150057   0.046190   0.033032
    18     H       0.002944  -0.003466   0.001089
    19     I      -0.000001   0.000006  -0.000001
    20     I       0.000002   0.000000   0.000001

PES point character: Geometry corresponds to a local minimum on the PES.




 ============================
 Statistical Thermal Analysis  ***  ideal gas assumed  ***
 ============================
  
 Pressure:                  1.000000 atm.
 Temperature:             298.150000 K



 Moments of Inertia [amu*bohr^2] and principal axis
 ==================================================

        2294.9593      17014.6574      19309.3498
 ------------------------------------------------
           0.3772         -0.8927         -0.2467
           0.9261          0.3613          0.1088
          -0.0080         -0.2695          0.9630


 The rotational contribution to the molecular entropy includes
 a term, dependent on the symmetry number sigma. The results 
 reported below were computed using sigma = 1, determined from
 the point group symmetry of the input geometry (NOSYM). 
 If this is not the correct symmetry, try symmetrizing the molecule before
 running the calculation (note: linear molecules should be aligned along one
 of the Cartesian axes).
 Contributions from frequencies below 20 1/cm are not included in vibrational sums.
 Their contributions, if any, are reported separately.


     Temp                                                        Transl      Rotat     Vibrat     Total
     ----                                                        ------      -----     ------     -----

     298.15   Entropy (cal/mol-K):                               43.743     34.977     38.312    117.031
              Nuclear Internal Energy (kcal/mol):                 0.889      0.889     94.156     95.934
              Constant Volume Heat Capacity (cal/mol-K):          2.981      2.981     34.520     40.482
          (c) Constant Volume Heat Capacity (cal/mol-K):          2.981      2.981     32.407     38.368

 Contributions from frequencies below 20 1/cm
 Frequency (1/cm):                                   13.208    12.665
 Entropy (cal/mol-K):                                 7.458     7.542
 Nuclear Internal Energy (kcal/mol):                  0.593     0.593
 Constant Volume Heat Capacity (cal/mol-K):           1.987     1.987

       Summary of energy terms
                                                   hartree              eV         kcal/mol           kJ/mol
                                      --------------------     -----------       ----------      -----------
      Energy from Engine:               -4.209406102069628       -114.5438         -2641.44        -11051.79
      Nuclear Internal Energy:           0.152880338729966          4.1601            95.93           401.39
  (c) Nuclear Internal Energy:           0.151766979498865          4.1298            95.24           398.46
      Internal Energy U:                -4.056525763339662       -110.3837         -2545.51        -10650.41
      pV/n = RT:                         0.000944186013486          0.0257             0.59             2.48
      Enthalpy H:                       -4.055581577326176       -110.3580         -2544.92        -10647.93
      -T*S:                             -0.055605399533391         -1.5131           -34.89          -145.99
  (c) -T*S:                             -0.058036528080622         -1.5793           -36.42          -152.37
      Gibbs free energy:                -4.111186976859567       -111.8711         -2579.81        -10793.92
 
 
 
  (c) The properties marked with this symbol have been corrected using 'low vibrational frequency free rotor
      interpolation corrections'. For those terms all positive frequencies are used (also ones below 20 1/cm),
      but the contribution to the partition function of small vibrational frequencies is modified as described
      in the following paper:
      S. Grimme, 'Supramolecular Binding Thermodynamics by Dispersion-Corrected Density Functional Theory'
      (Chem. Eur. J. 2012, 18, 9955-9964)
      Configuration: Dampener Frequency          :   100.000 1/cm
                     Dampener Alpha              :     4.000
                     Averaging Moment of Inertia : 1.000E-44 kg m2

--------------
Atomic charges
--------------
  Index   Atom    Charge
      1      H   -0.1823
      2      C    0.2940
      3      C    0.1863
      4      C    0.6536
      5      O   -0.5098
      6      H   -0.2212
      7      C    0.2587
      8      C    0.2424
      9      C    0.3047
     10      C   -0.0096
     11      C    0.3018
     12      C    0.2441
     13      H   -0.2426
     14      H   -0.2513
     15      H   -0.2567
     16      H   -0.2390
     17      H   -0.2375
     18      H   -0.2710
     19      I    0.0313
     20      I   -0.0960


Dipole moment vector    (Debye):    -3.79741250   -6.04709441   -0.30079885
              magnitude (Debye):     7.14689950


Final PES point is a local minimum. Geometry optimization successful!


AMS application finished. Exiting.
NORMAL TERMINATION
     Total cpu time:   36664.28
  Total system time:     238.34
 Total elapsed time:   74134.48
 WARNING: total elapsed time is much higher than the (CPU+system) time. 
 Make sure the machine is not oversubscribed and has enough memory, SCM_TMPDIR p
 oints to a fast file system, and the network is fast enough.
